       N       E                     dE             d eps       ncg     rms          rms(c)
DAV:   1     0.150981668303E+04    0.15098E+04   -0.88122E+04   792   0.927E+02
DAV:   2    -0.642165763061E+02   -0.15740E+04   -0.15180E+04   840   0.284E+02
DAV:   3    -0.147621082335E+03   -0.83405E+02   -0.79319E+02   856   0.797E+01
DAV:   4    -0.149594222245E+03   -0.19731E+01   -0.19484E+01   864   0.149E+01
DAV:   5    -0.149639673945E+03   -0.45452E-01   -0.45415E-01   960   0.149E+00    0.441E+01
DAV:   6    -0.173528668544E+05   -0.17203E+05   -0.16149E+05  1248   0.123E+02    0.126E+02
DAV:   7    -0.105888826965E+03    0.17247E+05   -0.83980E+03   846   0.125E+02    0.492E+01
DAV:   8    -0.128958570117E+03   -0.23070E+02   -0.20237E+02   948   0.905E+01    0.543E+01
DAV:   9    -0.135908270595E+03   -0.69497E+01   -0.95939E+01   882   0.816E+01    0.472E+01
DAV:  10    -0.142202967174E+03   -0.62947E+01   -0.36262E+01   904   0.733E+01    0.547E+01
DAV:  11    -0.137777258462E+03    0.44257E+01   -0.29959E+01   864   0.660E+01    0.491E+01
DAV:  12    -0.131515105492E+03    0.62622E+01   -0.19751E+01   856   0.436E+01    0.277E+01
DAV:  13    -0.131076691101E+03    0.43841E+00   -0.72662E+00   896   0.293E+01    0.293E+01
DAV:  14    -0.130793611590E+03    0.28308E+00   -0.49130E+00   904   0.242E+01    0.222E+01
DAV:  15    -0.130244192564E+03    0.54942E+00   -0.38929E+00   842   0.218E+01    0.175E+01
DAV:  16    -0.129985641290E+03    0.25855E+00   -0.26045E+00   880   0.140E+01    0.105E+01
DAV:  17    -0.130088749991E+03   -0.10311E+00   -0.57067E-01   888   0.881E+00    0.902E+00
DAV:  18    -0.130084632954E+03    0.41170E-02   -0.44058E-01   864   0.772E+00    0.659E+00
DAV:  19    -0.130321017416E+03   -0.23638E+00   -0.34805E-01   872   0.765E+00    0.886E+00
DAV:  20    -0.130619123673E+03   -0.29811E+00   -0.51954E-01   866   0.963E+00    0.973E+00
DAV:  21    -0.130752531034E+03   -0.13341E+00   -0.63616E-01   848   0.931E+00    0.645E+00
DAV:  22    -0.131211385302E+03   -0.45885E+00   -0.45447E-01   880   0.782E+00    0.888E+00
DAV:  23    -0.131725634098E+03   -0.51425E+00   -0.61421E-01   820   0.735E+00    0.620E+00
DAV:  24    -0.131958499856E+03   -0.23287E+00   -0.26750E-01   848   0.569E+00    0.319E+00
DAV:  25    -0.132457503348E+03   -0.49900E+00   -0.22162E-01   820   0.489E+00    0.465E+00
DAV:  26    -0.132890620183E+03   -0.43312E+00   -0.21054E-01   832   0.429E+00    0.168E+00
DAV:  27    -0.133107924748E+03   -0.21730E+00   -0.99163E-02   848   0.312E+00    0.299E+00
DAV:  28    -0.133576515165E+03   -0.46859E+00   -0.13085E-01   816   0.268E+00    0.199E+00
DAV:  29    -0.133679173735E+03   -0.10266E+00   -0.35850E-02   856   0.181E+00    0.141E+00
DAV:  30    -0.134002530281E+03   -0.32336E+00   -0.60291E-02   824   0.174E+00    0.185E+00
DAV:  31    -0.134259560866E+03   -0.25703E+00   -0.50009E-02   832   0.184E+00    0.113E+00
DAV:  32    -0.134505461709E+03   -0.24590E+00   -0.50059E-02   882   0.162E+00    0.169E+00
DAV:  33    -0.134760011794E+03   -0.25455E+00   -0.54591E-02   810   0.160E+00    0.867E-01
DAV:  34    -0.134849658614E+03   -0.89647E-01   -0.19109E-02   872   0.108E+00    0.835E-01
DAV:  35    -0.134998028708E+03   -0.14837E+00   -0.19950E-02   804   0.801E-01    0.670E-01
DAV:  36    -0.135060148080E+03   -0.62119E-01   -0.74288E-03   888   0.837E-01    0.555E-01
DAV:  37    -0.135178897652E+03   -0.11875E+00   -0.22418E-02   964   0.686E-01    0.592E-01
DAV:  38    -0.135195343905E+03   -0.16446E-01   -0.41389E-03   888   0.612E-01    0.270E-01
DAV:  39    -0.135217087786E+03   -0.21744E-01   -0.44992E-03   964   0.369E-01    0.312E-01
DAV:  40    -0.135221284737E+03   -0.41970E-02   -0.10806E-03   888   0.359E-01    0.165E-01
DAV:  41    -0.135227723726E+03   -0.64390E-02   -0.11592E-03   860   0.274E-01    0.288E-01
DAV:  42    -0.135231200716E+03   -0.34770E-02   -0.84872E-04   826   0.263E-01    0.111E-01
DAV:  43    -0.135233687791E+03   -0.24871E-02   -0.36322E-04   680   0.197E-01    0.163E-01
DAV:  44    -0.135236510608E+03   -0.28228E-02   -0.45749E-04   716   0.187E-01    0.880E-02
DAV:  45    -0.135237436050E+03   -0.92544E-03   -0.13111E-04   568   0.123E-01    0.104E-01
DAV:  46    -0.135238659521E+03   -0.12235E-02   -0.20284E-04   604   0.104E-01    0.508E-02
DAV:  47    -0.135239136315E+03   -0.47679E-03   -0.66117E-05   552   0.836E-02    0.529E-02
DAV:  48    -0.135240191110E+03   -0.10548E-02   -0.77552E-05   508   0.588E-02    0.358E-02
DAV:  49    -0.135240465225E+03   -0.27411E-03   -0.37657E-05   520   0.538E-02    0.392E-02
DAV:  50    -0.135240925709E+03   -0.46048E-03   -0.41152E-05   484   0.410E-02    0.257E-02
DAV:  51    -0.135240380295E+03    0.54541E-03   -0.18027E-04   578   0.469E-02    0.375E-02
DAV:  52    -0.135241235006E+03   -0.85471E-03   -0.51695E-05   498   0.462E-02    0.180E-02
DAV:  53    -0.135241500362E+03   -0.26536E-03   -0.23309E-05   520   0.399E-02    0.316E-02
DAV:  54    -0.135241751573E+03   -0.25121E-03   -0.28460E-05   470   0.363E-02    0.124E-02
DAV:  55    -0.135241852804E+03   -0.10123E-03   -0.15513E-05   488   0.223E-02    0.192E-02
DAV:  56    -0.135241951291E+03   -0.98487E-04   -0.14839E-05   476   0.280E-02
   1 F= -.13524195E+03 E0= -.13523935E+03  d E =-.135242E+03  mag=    19.9950
       N       E                     dE             d eps       ncg     rms          rms(c)
DAV:   1    -0.135237096742E+03    0.47561E-02   -0.13481E+00   832   0.230E+00    0.460E-01
DAV:   2    -0.135251663382E+03   -0.14567E-01   -0.32811E-02  1074   0.213E+00    0.239E+00
DAV:   3    -0.135234559648E+03    0.17104E-01   -0.24694E-02   882   0.211E+00    0.614E-01
DAV:   4    -0.135239790800E+03   -0.52312E-02   -0.11438E-02  1084   0.115E+00    0.127E+00
DAV:   5    -0.135237438859E+03    0.23519E-02   -0.91440E-03   922   0.102E+00    0.798E-01
DAV:   6    -0.135236658354E+03    0.78050E-03   -0.41952E-03   896   0.799E-01    0.419E-01
DAV:   7    -0.135237357261E+03   -0.69891E-03   -0.28840E-03   968   0.630E-01    0.612E-01
DAV:   8    -0.135237270062E+03    0.87199E-04   -0.25639E-03   898   0.632E-01    0.601E-01
DAV:   9    -0.135236530457E+03    0.73960E-03   -0.11471E-03   848   0.482E-01    0.197E-01
DAV:  10    -0.135236668713E+03   -0.13826E-03   -0.28357E-04   530   0.214E-01    0.156E-01
DAV:  11    -0.135236720559E+03   -0.51846E-04   -0.30922E-04   520   0.177E-01
   2 F= -.13523672E+03 E0= -.13523414E+03  d E =0.523073E-02  mag=    19.9988
       N       E                     dE             d eps       ncg     rms          rms(c)
DAV:   1    -0.135248950434E+03   -0.12282E-01   -0.23126E-01   842   0.582E-01    0.240E-01
DAV:   2    -0.135251479426E+03   -0.25290E-02   -0.63064E-03  1004   0.892E-01    0.117E+00
DAV:   3    -0.135248188481E+03    0.32909E-02   -0.45595E-03   898   0.907E-01    0.391E-01
DAV:   4    -0.135248976166E+03   -0.78768E-03   -0.22477E-03   986   0.637E-01    0.476E-01
DAV:   5    -0.135249462866E+03   -0.48670E-03   -0.36869E-03   898   0.662E-01    0.734E-01
DAV:   6    -0.135248081820E+03    0.13810E-02   -0.24776E-03   868   0.602E-01    0.305E-01
DAV:   7    -0.135248215416E+03   -0.13360E-03   -0.47399E-04   580   0.292E-01    0.139E-01
DAV:   8    -0.135248348027E+03   -0.13261E-03   -0.33917E-04   506   0.213E-01    0.235E-01
DAV:   9    -0.135248225520E+03    0.12251E-03   -0.22652E-04   454   0.176E-01    0.725E-02
DAV:  10    -0.135248246703E+03   -0.21183E-04   -0.44604E-05   452   0.665E-02
   3 F= -.13524825E+03 E0= -.13524563E+03  d E =-.115261E-01  mag=    19.9997
       N       E                     dE             d eps       ncg     rms          rms(c)
DAV:   1    -0.135249050772E+03   -0.82525E-03   -0.25614E-01   804   0.112E+00    0.185E-01
DAV:   2    -0.135254317232E+03   -0.52665E-02   -0.87632E-03  1066   0.122E+00    0.139E+00
DAV:   3    -0.135248301381E+03    0.60159E-02   -0.62635E-03   868   0.113E+00    0.206E-01
DAV:   4    -0.135249566877E+03   -0.12655E-02   -0.18926E-03   940   0.412E-01    0.417E-01
DAV:   5    -0.135249354058E+03    0.21282E-03   -0.12190E-03   750   0.334E-01    0.256E-01
DAV:   6    -0.135249308858E+03    0.45201E-04   -0.29597E-04   514   0.225E-01
   4 F= -.13524931E+03 E0= -.13524671E+03  d E =-.106215E-02  mag=    19.9998
