 vasp.6.3.2 27Jun22 (build Nov 14 2022 18:12:39) complex                        
  
 executed on                 Saga date 2023.01.31  13:56:28
 running on   40 total cores
 distrk:  each k-point on   40 cores,    1 groups
 distr:  one band on NCORE=  20 cores,    2 groups


--------------------------------------------------------------------------------------------------------


 INCAR:
   ENCUT = 400.000000
   SIGMA = 0.020000
   EDIFFG = -5.00e-02
   GGA = PE
   PREC = Accurate
   IBRION = 1
   ISMEAR = 0
   ISPIN = 2
   ISTART = 0
   ISYM = -1
   NELM = 120
   NSW = 40
   NCORE = 20
   LCHARG = .FALSE.
   LWAVE = .FALSE.

 POTCAR:    PAW_PBE Ni 02Aug2007                  
 POTCAR:    PAW_PBE H 15Jun2001                   
 -----------------------------------------------------------------------------
|                                                                             |
|           W    W    AA    RRRRR   N    N  II  N    N   GGGG   !!!           |
|           W    W   A  A   R    R  NN   N  II  NN   N  G    G  !!!           |
|           W    W  A    A  R    R  N N  N  II  N N  N  G       !!!           |
|           W WW W  AAAAAA  RRRRR   N  N N  II  N  N N  G  GGG   !            |
|           WW  WW  A    A  R   R   N   NN  II  N   NN  G    G                |
|           W    W  A    A  R    R  N    N  II  N    N   GGGG   !!!           |
|                                                                             |
|     You use a magnetic or noncollinear calculation, but did not specify     |
|     the initial magnetic moment with the MAGMOM tag. Note that a            |
|     default of 1 will be used for all atoms. This ferromagnetic setup       |
|     may break the symmetry of the crystal, in particular it may rule        |
|     out finding an antiferromagnetic solution. Thence, we recommend         |
|     setting the initial magnetic moment manually or verifying carefully     |
|     that this magnetic setup is desired.                                    |
|                                                                             |
 -----------------------------------------------------------------------------

 -----------------------------------------------------------------------------
|                                                                             |
|           W    W    AA    RRRRR   N    N  II  N    N   GGGG   !!!           |
|           W    W   A  A   R    R  NN   N  II  NN   N  G    G  !!!           |
|           W    W  A    A  R    R  N N  N  II  N N  N  G       !!!           |
|           W WW W  AAAAAA  RRRRR   N  N N  II  N  N N  G  GGG   !            |
|           WW  WW  A    A  R   R   N   NN  II  N   NN  G    G                |
|           W    W  A    A  R    R  N    N  II  N    N   GGGG   !!!           |
|                                                                             |
|     For optimal performance we recommend to set                             |
|       NCORE = 2 up to number-of-cores-per-socket                            |
|     NCORE specifies how many cores store one orbital (NPAR=cpu/NCORE).      |
|     This setting can greatly improve the performance of VASP for DFT.       |
|     The default, NCORE=1 might be grossly inefficient on modern             |
|     multi-core architectures or massively parallel machines. Do your        |
|     own testing! More info at https://www.vasp.at/wiki/index.php/NCORE      |
|     Unfortunately you need to use the default for GW and RPA                |
|     calculations (for HF NCORE is supported but not extensively tested      |
|     yet).                                                                   |
|                                                                             |
 -----------------------------------------------------------------------------

 POTCAR:    PAW_PBE Ni 02Aug2007                  
   VRHFIN =Ni:                                                                                      
   LEXCH  = PE                                                                                      
   EATOM  =  1077.6739 eV,   79.2068 Ry                                                             
                                                                                                    
   TITEL  = PAW_PBE Ni 02Aug2007                                                                    
   LULTRA =        F    use ultrasoft PP ?                                                          
   IUNSCR =        1    unscreen: 0-lin 1-nonlin 2-no                                               
   RPACOR =    2.000    partial core radius                                                         
   POMASS =   58.690; ZVAL   =   10.000    mass and valenz                                          
   RCORE  =    2.300    outmost cutoff radius                                                       
   RWIGS  =    2.430; RWIGS  =    1.286    wigner-seitz radius (au A)                               
   ENMAX  =  269.532; ENMIN  =  202.149 eV                                                          
   RCLOC  =    1.201    cutoff for local pot                                                        
   LCOR   =        T    correct aug charges                                                         
   LPAW   =        T    paw PP                                                                      
   EAUG   =  544.565                                                                                
   DEXC   =    0.000                                                                                
   RMAX   =    2.357    core radius for proj-oper                                                   
   RAUG   =    1.300    factor for augmentation sphere                                              
   RDEP   =    2.390    radius for radial grids                                                     
   RDEPT  =    1.838    core radius for aug-charge                                                  
                                                                                                    
   Atomic configuration                                                                             
    9 entries                                                                                       
     n  l   j            E        occ.                                                              
     1  0  0.50     -8206.4253   2.0000                                                             
     2  0  0.50      -976.1748   2.0000                                                             
     2  1  1.50      -839.0571   6.0000                                                             
     3  0  0.50      -105.9991   2.0000                                                             
     3  1  1.50       -66.4603   6.0000                                                             
     3  2  2.50        -4.6458   9.0000                                                             
     4  0  0.50        -4.4926   1.0000                                                             
     4  1  1.50        -4.0817   0.0000                                                             
     4  3  2.50        -1.3606   0.0000                                                             
   Description                                                                                      
     l       E           TYP  RCUT    TYP  RCUT                                                     
     2     -4.6457903     23  2.300                                                                 
     2     -6.0063729     23  2.300                                                                 
     0     -4.4925590     23  2.300                                                                 
     0      5.0102601     23  2.300                                                                 
     1     -2.7211652     23  2.300                                                                 
     1     16.5183231     23  2.300                                                                 
  local pseudopotential read in
  partial core-charges read in
  partial kinetic energy density read in
  atomic valenz-charges read in
  non local Contribution for L=           2  read in
    real space projection operators read in
  non local Contribution for L=           2  read in
    real space projection operators read in
  non local Contribution for L=           0  read in
    real space projection operators read in
  non local Contribution for L=           0  read in
    real space projection operators read in
  non local Contribution for L=           1  read in
    real space projection operators read in
  non local Contribution for L=           1  read in
    real space projection operators read in
    PAW grid and wavefunctions read in
 
   number of l-projection  operators is LMAX  =           6
   number of lm-projection operators is LMMAX =          18
 
 POTCAR:    PAW_PBE H 15Jun2001                   
   VRHFIN =H: ultrasoft test                                                                        
   LEXCH  = PE                                                                                      
   EATOM  =    12.4884 eV,    0.9179 Ry                                                             
                                                                                                    
   TITEL  = PAW_PBE H 15Jun2001                                                                     
   LULTRA =        F    use ultrasoft PP ?                                                          
   IUNSCR =        0    unscreen: 0-lin 1-nonlin 2-no                                               
   RPACOR =    0.000    partial core radius                                                         
   POMASS =    1.000; ZVAL   =    1.000    mass and valenz                                          
   RCORE  =    1.100    outmost cutoff radius                                                       
   RWIGS  =    0.700; RWIGS  =    0.370    wigner-seitz radius (au A)                               
   ENMAX  =  250.000; ENMIN  =  200.000 eV                                                          
   RCLOC  =    0.701    cutoff for local pot                                                        
   LCOR   =        T    correct aug charges                                                         
   LPAW   =        T    paw PP                                                                      
   EAUG   =  400.000                                                                                
   RMAX   =    1.123    core radius for proj-oper                                                   
   RAUG   =    1.200    factor for augmentation sphere                                              
   RDEP   =    1.112    radius for radial grids                                                     
   RDEPT  =    0.926    core radius for aug-charge                                                  
                                                                                                    
   Atomic configuration                                                                             
    2 entries                                                                                       
     n  l   j            E        occ.                                                              
     1  0  0.50        -6.4927   1.0000                                                             
     2  1  0.50        -3.4015   0.0000                                                             
   Description                                                                                      
     l       E           TYP  RCUT    TYP  RCUT                                                     
     0     -6.4927494     23  1.100                                                                 
     0      6.8029130     23  1.100                                                                 
     1     -4.0817478     23  1.100                                                                 
  local pseudopotential read in
  atomic valenz-charges read in
  non local Contribution for L=           0  read in
    real space projection operators read in
  non local Contribution for L=           0  read in
    real space projection operators read in
  non local Contribution for L=           1  read in
    real space projection operators read in
    PAW grid and wavefunctions read in
 
   number of l-projection  operators is LMAX  =           3
   number of lm-projection operators is LMMAX =           5
 
 -----------------------------------------------------------------------------
|                                                                             |
|               ----> ADVICE to this user running VASP <----                  |
|                                                                             |
|     You have a (more or less) 'large supercell' and for larger cells it     |
|     might be more efficient to use real-space projection operators.         |
|     Therefore, try LREAL= Auto in the INCAR file.                           |
|     Mind: For very accurate calculation, you might also keep the            |
|     reciprocal projection scheme (i.e. LREAL=.FALSE.).                      |
|                                                                             |
 -----------------------------------------------------------------------------

  PAW_PBE Ni 02Aug2007                  :
 energy of atom  1       EATOM=-1077.6739
 kinetic energy error for atom=    0.0101 (will be added to EATOM!!)
  PAW_PBE H 15Jun2001                   :
 energy of atom  2       EATOM=  -12.4884
 kinetic energy error for atom=    0.0098 (will be added to EATOM!!)
 
 
 POSCAR: Ni  H
  positions in cartesian coordinates
  No initial velocities read in
 exchange correlation table for  LEXCH =        8
   RHO(1)=    0.500       N(1)  =     2000
   RHO(2)=  100.500       N(2)  =     4000

 VTST: version 4.2, (08/11/21)

 CHAIN: initializing optimizer
 
 OPT: Using VASP QUASI-newton optimizer
 CHAIN: Read ICHAIN            0
 
 POSCAR: Ni  H
  positions in cartesian coordinates
  No initial velocities read in
 


--------------------------------------------------------------------------------------------------------


 ion  position               nearest neighbor table
   1  0.242  0.466  0.394-   8 2.33   9 2.33  21 2.38  22 2.38  30 2.72
   2  0.477  0.470  0.677-  27 2.31   5 2.38  25 2.41  24 2.41  16 2.55  15 2.55
   3  0.565  0.676  0.384-  28 2.30  17 2.37  12 2.42   6 2.46  13 2.55  20 2.58
   4  0.573  0.266  0.385-  29 2.30  18 2.38  11 2.41   7 2.46  14 2.53  19 2.58
   5  0.338  0.468  0.624-  27 2.32   2 2.38  22 2.41  21 2.41  16 2.50  15 2.50
   6  0.660  0.621  0.492-  12 2.34  26 2.37  24 2.41  13 2.42  28 2.43   3 2.46
   7  0.665  0.325  0.493-  11 2.35  26 2.36  25 2.41  14 2.42  29 2.44   4 2.46
   8  0.327  0.574  0.345-  30 2.30   1 2.33  17 2.36  20 2.40  21 2.44  10 2.56
   9  0.331  0.361  0.345-  30 2.30   1 2.33  18 2.36  19 2.41  22 2.44  10 2.54
  10  0.403  0.468  0.252-  30 2.28  23 2.43  18 2.45  17 2.45   9 2.54   8 2.56
  11  0.538  0.264  0.531-  19 2.33   7 2.35  25 2.39  16 2.40   4 2.41  29 2.53
  12  0.530  0.677  0.530-  20 2.33   6 2.34  24 2.39  15 2.40   3 2.42  28 2.53
  13  0.658  0.549  0.359-  28 2.34  23 2.35   6 2.42  26 2.42  14 2.45   3 2.55
  14  0.660  0.396  0.359-  29 2.34  23 2.36   7 2.42  26 2.43  13 2.45   4 2.53
  15  0.423  0.595  0.595-  27 2.27  12 2.40  21 2.45   5 2.50  20 2.51  24 2.52   2 2.55
  16  0.427  0.343  0.595-  27 2.28  11 2.40  22 2.44   5 2.50  19 2.51  25 2.52   2 2.55
  17  0.468  0.595  0.308-  23 2.32   8 2.36   3 2.37  20 2.39  10 2.45  28 2.50  30 2.59
  18  0.474  0.345  0.309-  23 2.32   9 2.36   4 2.38  19 2.39  10 2.45  29 2.48  30 2.60
  19  0.427  0.301  0.444-  29 2.32  11 2.33  22 2.35  18 2.39   9 2.41  16 2.51   4 2.58  30 2.82

  20  0.421  0.636  0.443-  12 2.33  28 2.33  21 2.35  17 2.39   8 2.40  15 2.51   3 2.58  30 2.79
                            27 3.08
  21  0.320  0.543  0.494-  20 2.35   1 2.38   5 2.41  22 2.42   8 2.44  15 2.45  30 2.48  27 2.51

  22  0.323  0.392  0.494-  19 2.35   1 2.38   5 2.41  21 2.42  16 2.44   9 2.44  30 2.48  27 2.50

  23  0.544  0.471  0.307-  17 2.32  18 2.32  13 2.35  14 2.36  10 2.43  28 2.46  29 2.48  30 2.53

  24  0.573  0.547  0.590-  12 2.39   2 2.41  25 2.41   6 2.41  26 2.44  27 2.45  28 2.47  15 2.52

  25  0.575  0.396  0.590-  11 2.39   2 2.41  24 2.41   7 2.41  26 2.45  27 2.46  29 2.46  16 2.52

  26  0.660  0.473  0.489-   7 2.36   6 2.37  13 2.42  14 2.43  24 2.44  29 2.44  28 2.44  25 2.45

  27  0.452  0.470  0.535-  15 2.27  16 2.28   2 2.31   5 2.32  30 2.34  29 2.38  28 2.38  24 2.45
                            25 2.46  22 2.50  21 2.51  20 3.08
  28  0.537  0.548  0.440-   3 2.30  20 2.33  13 2.34  27 2.38   6 2.43  26 2.44  23 2.46  29 2.47
                            30 2.47  24 2.47  17 2.50  12 2.53
  29  0.539  0.394  0.441-   4 2.30  19 2.32  14 2.34  27 2.38  26 2.44   7 2.44  25 2.46  28 2.47
                            30 2.47  23 2.48  18 2.48  11 2.53
  30  0.412  0.469  0.394-  10 2.28   9 2.30   8 2.30  27 2.34  28 2.47  29 2.47  22 2.48  21 2.48
                            23 2.53  17 2.59  18 2.60   1 2.72  20 2.79  19 2.82
  31  0.486  0.745  0.750-  32 0.74
  32  0.499  0.776  0.782-  31 0.74
 

IMPORTANT INFORMATION: All symmetrisations will be switched off!
NOSYMM: (Re-)initialisation of all symmetry stuff for point group C_1.


----------------------------------------------------------------------------------------

                                     Primitive cell                                     

  volume of cell :    4096.0000

  direct lattice vectors                    reciprocal lattice vectors
    16.000000000  0.000000000  0.000000000     0.062500000  0.000000000  0.000000000
     0.000000000 16.000000000  0.000000000     0.000000000  0.062500000  0.000000000
     0.000000000  0.000000000 16.000000000     0.000000000  0.000000000  0.062500000

  length of vectors
    16.000000000 16.000000000 16.000000000     0.062500000  0.062500000  0.062500000

  position of ions in fractional coordinates (direct lattice)
     0.242048125  0.465743750  0.393580625
     0.476647500  0.469960625  0.677245000
     0.565492500  0.676485000  0.383624375
     0.573113125  0.265545000  0.384993750
     0.337685625  0.467668125  0.623565000
     0.659788750  0.620613750  0.491540625
     0.665249375  0.325273750  0.492579375
     0.326750000  0.573690625  0.344816250
     0.331143750  0.361228125  0.345071875
     0.402573125  0.468090625  0.251906250
     0.537506250  0.264140000  0.531408125
     0.530314375  0.677114375  0.530476250
     0.658111250  0.548950625  0.358668125
     0.659673125  0.395603750  0.358807500
     0.422689375  0.595256875  0.594760000
     0.426833125  0.342996250  0.594718125
     0.468097500  0.594550000  0.307648750
     0.473522500  0.345161250  0.308788125
     0.427118750  0.300876875  0.443863125
     0.421298750  0.636289375  0.443343125
     0.319921250  0.543011250  0.494245625
     0.323288125  0.391971250  0.494260000
     0.544356250  0.471457500  0.306801250
     0.572671875  0.546640000  0.590112500
     0.574828750  0.395946250  0.590447500
     0.660083125  0.472715000  0.489474375
     0.452260000  0.469804375  0.534736250
     0.536607500  0.547763125  0.440055000
     0.538816250  0.393693750  0.440788125
     0.412308750  0.469145625  0.393803125
     0.486386492  0.744599861  0.750357271
     0.499475178  0.776012709  0.781770119

  ion indices of the primitive-cell ions
   primitive index   ion index
                 1           1
                 2           2
                 3           3
                 4           4
                 5           5
                 6           6
                 7           7
                 8           8
                 9           9
                10          10
                11          11
                12          12
                13          13
                14          14
                15          15
                16          16
                17          17
                18          18
                19          19
                20          20
                21          21
                22          22
                23          23
                24          24
                25          25
                26          26
                27          27
                28          28
                29          29
                30          30
                31          31
                32          32

----------------------------------------------------------------------------------------

 
 
 KPOINTS: KPOINTS created by Atomic Simulation Env

Automatic generation of k-mesh.
 Grid dimensions read from file:
 generate k-points for:    1    1    1

 Generating k-lattice:

  Cartesian coordinates                     Fractional coordinates (reciprocal lattice)
     0.062500000  0.000000000  0.000000000     1.000000000  0.000000000  0.000000000
     0.000000000  0.062500000  0.000000000     0.000000000  1.000000000  0.000000000
     0.000000000  0.000000000  0.062500000     0.000000000  0.000000000  1.000000000

  Length of vectors
     0.062500000  0.062500000  0.062500000

  Shift w.r.t. Gamma in fractional coordinates (k-lattice)
     0.000000000  0.000000000  0.000000000

 
 Subroutine IBZKPT returns following result:
 ===========================================
 
 Found      1 irreducible k-points:
 
 Following reciprocal coordinates:
            Coordinates               Weight
  0.000000  0.000000  0.000000      1.000000
 
 Following cartesian coordinates:
            Coordinates               Weight
  0.000000  0.000000  0.000000      1.000000
 


--------------------------------------------------------------------------------------------------------




 Dimension of arrays:
   k-points           NKPTS =      1   k-points in BZ     NKDIM =      1   number of bands    NBANDS=    198
   number of dos      NEDOS =    301   number of ions     NIONS =     32
   non local maximal  LDIM  =      6   non local SUM 2l+1 LMDIM =     18
   total plane-waves  NPLWV = ******
   max r-space proj   IRMAX =      1   max aug-charges    IRDMAX=  10167
   dimension x,y,z NGX =   108 NGY =  108 NGZ =  108
   dimension x,y,z NGXF=   216 NGYF=  216 NGZF=  216
   support grid    NGXF=   216 NGYF=  216 NGZF=  216
   ions per type =              30   2
   NGX,Y,Z   is equivalent  to a cutoff of  11.22, 11.22, 11.22 a.u.
   NGXF,Y,Z  is equivalent  to a cutoff of  22.44, 22.44, 22.44 a.u.

 SYSTEM =  unknown system                          
 POSCAR =  Ni  H                                   

 Startparameter for this run:
   NWRITE =      2    write-flag & timer
   PREC   = accura    normal or accurate (medium, high low for compatibility)
   ISTART =      0    job   : 0-new  1-cont  2-samecut
   ICHARG =      2    charge: 1-file 2-atom 10-const
   ISPIN  =      2    spin polarized calculation?
   LNONCOLLINEAR =      F non collinear calculations
   LSORBIT =      F    spin-orbit coupling
   INIWAV =      1    electr: 0-lowe 1-rand  2-diag
   LASPH  =      F    aspherical Exc in radial PAW
 Electronic Relaxation 1
   ENCUT  =  400.0 eV  29.40 Ry    5.42 a.u.  26.09 26.09 26.09*2*pi/ulx,y,z
   ENINI  =  400.0     initial cutoff
   ENAUG  =  544.6 eV  augmentation charge cutoff
   NELM   =    120;   NELMIN=  2; NELMDL= -5     # of ELM steps 
   EDIFF  = 0.1E-03   stopping-criterion for ELM
   LREAL  =      F    real-space projection
   NLSPLINE    = F    spline interpolate recip. space projectors
   LCOMPAT=      F    compatible to vasp.4.4
   GGA_COMPAT  = T    GGA compatible to vasp.4.4-vasp.4.6
   LMAXPAW     = -100 max onsite density
   LMAXMIX     =    2 max onsite mixed and CHGCAR
   VOSKOWN=      0    Vosko Wilk Nusair interpolation
   ROPT   =    0.00000   0.00000
 Ionic relaxation
   EDIFFG = -.5E-01   stopping-criterion for IOM
   NSW    =     40    number of steps for IOM
   NBLOCK =      1;   KBLOCK =     40    inner block; outer block 
   IBRION =      1    ionic relax: 0-MD 1-quasi-New 2-CG
   NFREE  =      0    steps in history (QN), initial steepest desc. (CG)
   ISIF   =      2    stress and relaxation
   IWAVPR =     11    prediction:  0-non 1-charg 2-wave 3-comb
   ISYM   =     -1    0-nonsym 1-usesym 2-fastsym
   LCORR  =      T    Harris-Foulkes like correction to forces

   POTIM  = 0.5000    time-step for ionic-motion
   TEIN   =    0.0    initial temperature
   TEBEG  =    0.0;   TEEND  =   0.0 temperature during run
   SMASS  =  -3.00    Nose mass-parameter (am)
   estimated Nose-frequenzy (Omega)   =  0.10E-29 period in steps = 0.13E+47 mass=  -0.585E-26a.u.
   SCALEE = 1.0000    scale energy and forces
   NPACO  =    256;   APACO  = 10.0  distance and # of slots for P.C.
   PSTRESS=    0.0 pullay stress

  Mass of Ions in am
   POMASS =  58.69  1.00
  Ionic Valenz
   ZVAL   =  10.00  1.00
  Atomic Wigner-Seitz radii
   RWIGS  =  -1.00 -1.00
  virtual crystal weights 
   VCA    =   1.00  1.00
   NELECT =     302.0000    total number of electrons
   NUPDOWN=      -1.0000    fix difference up-down

 DOS related values:
   EMIN   =  10.00;   EMAX   =-10.00  energy-range for DOS
   EFERMI =   0.00
   ISMEAR =     0;   SIGMA  =   0.02  broadening in eV -4-tet -1-fermi 0-gaus

 Electronic relaxation 2 (details)
   IALGO  =     38    algorithm
   LDIAG  =      T    sub-space diagonalisation (order eigenvalues)
   LSUBROT=      F    optimize rotation matrix (better conditioning)
   TURBO    =      0    0=normal 1=particle mesh
   IRESTART =      0    0=no restart 2=restart with 2 vectors
   NREBOOT  =      0    no. of reboots
   NMIN     =      0    reboot dimension
   EREF     =   0.00    reference energy to select bands
   IMIX   =      4    mixing-type and parameters
     AMIX     =   0.40;   BMIX     =  1.00
     AMIX_MAG =   1.60;   BMIX_MAG =  1.00
     AMIN     =   0.10
     WC   =   100.;   INIMIX=   1;  MIXPRE=   1;  MAXMIX= -45

 Intra band minimization:
   WEIMIN = 0.0010     energy-eigenvalue tresh-hold
   EBREAK =  0.13E-06  absolut break condition
   DEPER  =   0.30     relativ break condition  

   TIME   =   0.40     timestep for ELM

  volume/ion in A,a.u.               =     128.00       863.79
  Fermi-wavevector in a.u.,A,eV,Ry     =   0.686474  1.297247  6.411691  0.471246
  Thomas-Fermi vector in A             =   1.766712
 
 Write flags
   LWAVE        =      F    write WAVECAR
   LDOWNSAMPLE  =      F    k-point downsampling of WAVECAR
   LCHARG       =      F    write CHGCAR
   LVTOT        =      F    write LOCPOT, total local potential
   LVHAR        =      F    write LOCPOT, Hartree potential only
   LELF         =      F    write electronic localiz. function (ELF)
   LORBIT       =      0    0 simple, 1 ext, 2 COOP (PROOUT), +10 PAW based schemes


 Dipole corrections
   LMONO  =      F    monopole corrections only (constant potential shift)
   LDIPOL =      F    correct potential (dipole corrections)
   IDIPOL =      0    1-x, 2-y, 3-z, 4-all directions 
   EPSILON=  1.0000000 bulk dielectric constant

 Exchange correlation treatment:
   GGA     =    PE    GGA type
   LEXCH   =     8    internal setting for exchange type
   LIBXC   =     F    Libxc                    
   VOSKOWN =     0    Vosko Wilk Nusair interpolation
   LHFCALC =     F    Hartree Fock is set to
   LHFONE  =     F    Hartree Fock one center treatment
   AEXX    =    0.0000 exact exchange contribution

 Linear response parameters
   LEPSILON=     F    determine dielectric tensor
   LRPA    =     F    only Hartree local field effects (RPA)
   LNABLA  =     F    use nabla operator in PAW spheres
   LVEL    =     F    velocity operator in full k-point grid
   CSHIFT  =0.1000    complex shift for real part using Kramers Kronig
   OMEGAMAX=  -1.0    maximum frequency
   DEG_THRESHOLD= 0.2000000E-02 threshold for treating states as degnerate
   RTIME   =   -0.100 relaxation time in fs
  (WPLASMAI=    0.000 imaginary part of plasma frequency in eV, 0.658/RTIME)
   DFIELD  = 0.0000000 0.0000000 0.0000000 field for delta impulse in time
 
  Optional k-point grid parameters
   LKPOINTS_OPT  =     F    use optional k-point grid
   KPOINTS_OPT_MODE=     1    mode for optional k-point grid
 
 Orbital magnetization related:
   ORBITALMAG=     F  switch on orbital magnetization
   LCHIMAG   =     F  perturbation theory with respect to B field
   DQ        =  0.001000  dq finite difference perturbation B field
   LLRAUG    =     F  two centre corrections for induced B field



--------------------------------------------------------------------------------------------------------


 quasi-Newton-method for relaxation of ions
 charge density and potential will be updated during run
 spin polarized calculation
 Variant of blocked Davidson
 Davidson routine will perform the subspace rotation
 perform sub-space diagonalisation
    after iterative eigenvector-optimisation
 modified Broyden-mixing scheme, WC =      100.0
 initial mixing is a Kerker type mixing with AMIX =  0.4000 and BMIX =      1.0000
 Hartree-type preconditioning will be used
 using additional bands           47
 reciprocal scheme for non local part
 use partial core corrections
 calculate Harris-corrections to forces 
   (improved forces if not selfconsistent)
 use gradient corrections 
 use of overlap-Matrix (Vanderbilt PP)
 Gauss-broadening in eV      SIGMA  =   0.02


--------------------------------------------------------------------------------------------------------


  energy-cutoff  :      400.00
  volume of cell :     4096.00
      direct lattice vectors                 reciprocal lattice vectors
    16.000000000  0.000000000  0.000000000     0.062500000  0.000000000  0.000000000
     0.000000000 16.000000000  0.000000000     0.000000000  0.062500000  0.000000000
     0.000000000  0.000000000 16.000000000     0.000000000  0.000000000  0.062500000

  length of vectors
    16.000000000 16.000000000 16.000000000     0.062500000  0.062500000  0.062500000


 
 k-points in units of 2pi/SCALE and weight: KPOINTS created by Atomic Simulation Env
   0.00000000  0.00000000  0.00000000       1.000
 
 k-points in reciprocal lattice and weights: KPOINTS created by Atomic Simulation Env
   0.00000000  0.00000000  0.00000000       1.000
 
 position of ions in fractional coordinates (direct lattice) 
   0.24204812  0.46574375  0.39358062
   0.47664750  0.46996062  0.67724500
   0.56549250  0.67648500  0.38362437
   0.57311312  0.26554500  0.38499375
   0.33768562  0.46766813  0.62356500
   0.65978875  0.62061375  0.49154062
   0.66524938  0.32527375  0.49257937
   0.32675000  0.57369062  0.34481625
   0.33114375  0.36122812  0.34507188
   0.40257313  0.46809063  0.25190625
   0.53750625  0.26414000  0.53140812
   0.53031438  0.67711438  0.53047625
   0.65811125  0.54895063  0.35866813
   0.65967312  0.39560375  0.35880750
   0.42268937  0.59525687  0.59476000
   0.42683313  0.34299625  0.59471812
   0.46809750  0.59455000  0.30764875
   0.47352250  0.34516125  0.30878812
   0.42711875  0.30087688  0.44386313
   0.42129875  0.63628937  0.44334312
   0.31992125  0.54301125  0.49424562
   0.32328812  0.39197125  0.49426000
   0.54435625  0.47145750  0.30680125
   0.57267187  0.54664000  0.59011250
   0.57482875  0.39594625  0.59044750
   0.66008312  0.47271500  0.48947438
   0.45226000  0.46980438  0.53473625
   0.53660750  0.54776313  0.44005500
   0.53881625  0.39369375  0.44078812
   0.41230875  0.46914563  0.39380312
   0.48638649  0.74459986  0.75035727
   0.49947518  0.77601271  0.78177012
 
 position of ions in cartesian coordinates  (Angst):
   3.87277000  7.45190000  6.29729000
   7.62636000  7.51937000 10.83592000
   9.04788000 10.82376000  6.13799000
   9.16981000  4.24872000  6.15990000
   5.40297000  7.48269000  9.97704000
  10.55662000  9.92982000  7.86465000
  10.64399000  5.20438000  7.88127000
   5.22800000  9.17905000  5.51706000
   5.29830000  5.77965000  5.52115000
   6.44117000  7.48945000  4.03050000
   8.60010000  4.22624000  8.50253000
   8.48503000 10.83383000  8.48762000
  10.52978000  8.78321000  5.73869000
  10.55477000  6.32966000  5.74092000
   6.76303000  9.52411000  9.51616000
   6.82933000  5.48794000  9.51549000
   7.48956000  9.51280000  4.92238000
   7.57636000  5.52258000  4.94061000
   6.83390000  4.81403000  7.10181000
   6.74078000 10.18063000  7.09349000
   5.11874000  8.68818000  7.90793000
   5.17261000  6.27154000  7.90816000
   8.70970000  7.54332000  4.90882000
   9.16275000  8.74624000  9.44180000
   9.19726000  6.33514000  9.44716000
  10.56133000  7.56344000  7.83159000
   7.23616000  7.51687000  8.55578000
   8.58572000  8.76421000  7.04088000
   8.62106000  6.29910000  7.05261000
   6.59694000  7.50633000  6.30085000
   7.78218387 11.91359778 12.00571634
   7.99160285 12.41620334 12.50832190
 


--------------------------------------------------------------------------------------------------------


 k-point   1 :   0.0000 0.0000 0.0000  plane waves:   74269

 maximum and minimum number of plane-waves per node :      3721     3707

 maximum number of plane-waves:     74269
 maximum index in each direction: 
   IXMAX=   26   IYMAX=   26   IZMAX=   26
   IXMIN=  -26   IYMIN=  -26   IZMIN=  -26


 parallel 3D FFT for wavefunctions:
    minimum data exchange during FFTs selected (reduces bandwidth)
 parallel 3D FFT for charge:
    minimum data exchange during FFTs selected (reduces bandwidth)


 total amount of memory used by VASP MPI-rank0    84390. kBytes
=======================================================================

   base      :      30000. kBytes
   nonl-proj :       2972. kBytes
   fftplans  :      11290. kBytes
   grid      :      28180. kBytes
   one-center:         62. kBytes
   wavefun   :      11886. kBytes
 
     INWAV:  cpu time      0.0000: real time      0.0000
 Broyden mixing: mesh for mixing (old mesh)
   NGX = 53   NGY = 53   NGZ = 53
  (NGX  =216   NGY  =216   NGZ  =216)
  gives a total of 148877 points

 initial charge density was supplied:
 charge density of overlapping atoms calculated
 number of electron     302.0000000 magnetization      32.0000000
 keeping initial charge density in first step


--------------------------------------------------------------------------------------------------------


 Maximum index for augmentation-charges          534 (set IRDMAX)


--------------------------------------------------------------------------------------------------------


 First call to EWALD:  gamma=   0.111
 Maximum number of real-space cells 3x 3x 3
 Maximum number of reciprocal cells 3x 3x 3

    FEWALD:  cpu time      0.0021: real time      0.0021


--------------------------------------- Iteration      1(   1)  ---------------------------------------


    POTLOK:  cpu time      0.4502: real time      0.4532
    SETDIJ:  cpu time      0.0119: real time      0.0123
     EDDAV:  cpu time      3.7793: real time      3.7928
       DOS:  cpu time      0.0013: real time      0.0016
    --------------------------------------------
      LOOP:  cpu time      4.2427: real time      4.2600

 eigenvalue-minimisations  :   792
 total energy-change (2. order) : 0.1509817E+04  (-0.8812199E+04)
 number of electron     302.0000000 magnetization      32.0000000
 augmentation part      302.0000000 magnetization      32.0000000

 Free energy of the ion-electron system (eV)
  ---------------------------------------------------
  alpha Z        PSCENC =       113.16553179
  Ewald energy   TEWEN  =     55957.04881956
  -Hartree energ DENC   =    -85794.26217929
  -exchange      EXHF   =         0.00000000
  -V(xc)+E(xc)   XCENC  =       936.27076537
  PAW double counting   =     28888.58386782   -30893.72677109
  entropy T*S    EENTRO =        -0.00431126
  eigenvalues    EBANDS =       -52.13141908
  atomic energy  EATOM  =     32354.87237921
  Solvation  Ediel_sol  =         0.00000000
  ---------------------------------------------------
  free energy    TOTEN  =      1509.81668303 eV

  energy without entropy =     1509.82099429  energy(sigma->0) =     1509.81883866


--------------------------------------------------------------------------------------------------------




--------------------------------------- Iteration      1(   2)  ---------------------------------------


     EDDAV:  cpu time      3.9017: real time      3.9234
       DOS:  cpu time      0.0007: real time      0.0007
    --------------------------------------------
      LOOP:  cpu time      3.9025: real time      3.9241

 eigenvalue-minimisations  :   840
 total energy-change (2. order) :-0.1574033E+04  (-0.1518008E+04)
 number of electron     302.0000000 magnetization      32.0000000
 augmentation part      302.0000000 magnetization      32.0000000

 Free energy of the ion-electron system (eV)
  ---------------------------------------------------
  alpha Z        PSCENC =       113.16553179
  Ewald energy   TEWEN  =     55957.04881956
  -Hartree energ DENC   =    -85794.26217929
  -exchange      EXHF   =         0.00000000
  -V(xc)+E(xc)   XCENC  =       936.27076537
  PAW double counting   =     28888.58386782   -30893.72677109
  entropy T*S    EENTRO =        -0.01643451
  eigenvalues    EBANDS =     -1626.15255517
  atomic energy  EATOM  =     32354.87237921
  Solvation  Ediel_sol  =         0.00000000
  ---------------------------------------------------
  free energy    TOTEN  =       -64.21657631 eV

  energy without entropy =      -64.20014180  energy(sigma->0) =      -64.20835905


--------------------------------------------------------------------------------------------------------




--------------------------------------- Iteration      1(   3)  ---------------------------------------


     EDDAV:  cpu time      3.9591: real time      3.9799
       DOS:  cpu time      0.0007: real time      0.0007
    --------------------------------------------
      LOOP:  cpu time      3.9598: real time      3.9806

 eigenvalue-minimisations  :   856
 total energy-change (2. order) :-0.8340451E+02  (-0.7931938E+02)
 number of electron     302.0000000 magnetization      32.0000000
 augmentation part      302.0000000 magnetization      32.0000000

 Free energy of the ion-electron system (eV)
  ---------------------------------------------------
  alpha Z        PSCENC =       113.16553179
  Ewald energy   TEWEN  =     55957.04881956
  -Hartree energ DENC   =    -85794.26217929
  -exchange      EXHF   =         0.00000000
  -V(xc)+E(xc)   XCENC  =       936.27076537
  PAW double counting   =     28888.58386782   -30893.72677109
  entropy T*S    EENTRO =        -0.01550012
  eigenvalues    EBANDS =     -1709.55799559
  atomic energy  EATOM  =     32354.87237921
  Solvation  Ediel_sol  =         0.00000000
  ---------------------------------------------------
  free energy    TOTEN  =      -147.62108234 eV

  energy without entropy =     -147.60558221  energy(sigma->0) =     -147.61333228


--------------------------------------------------------------------------------------------------------




--------------------------------------- Iteration      1(   4)  ---------------------------------------


     EDDAV:  cpu time      3.9926: real time      4.0089
       DOS:  cpu time      0.0008: real time      0.0008
    --------------------------------------------
      LOOP:  cpu time      3.9935: real time      4.0097

 eigenvalue-minimisations  :   864
 total energy-change (2. order) :-0.1973140E+01  (-0.1948401E+01)
 number of electron     302.0000000 magnetization      32.0000000
 augmentation part      302.0000000 magnetization      32.0000000

 Free energy of the ion-electron system (eV)
  ---------------------------------------------------
  alpha Z        PSCENC =       113.16553179
  Ewald energy   TEWEN  =     55957.04881956
  -Hartree energ DENC   =    -85794.26217929
  -exchange      EXHF   =         0.00000000
  -V(xc)+E(xc)   XCENC  =       936.27076537
  PAW double counting   =     28888.58386782   -30893.72677109
  entropy T*S    EENTRO =        -0.01487697
  eigenvalues    EBANDS =     -1711.53175865
  atomic energy  EATOM  =     32354.87237921
  Solvation  Ediel_sol  =         0.00000000
  ---------------------------------------------------
  free energy    TOTEN  =      -149.59422225 eV

  energy without entropy =     -149.57934527  energy(sigma->0) =     -149.58678376


--------------------------------------------------------------------------------------------------------




--------------------------------------- Iteration      1(   5)  ---------------------------------------


     EDDAV:  cpu time      4.3359: real time      4.3582
       DOS:  cpu time      0.0020: real time      0.0020
    CHARGE:  cpu time      0.1837: real time      0.1841
    MIXING:  cpu time      0.0124: real time      0.0215
    --------------------------------------------
      LOOP:  cpu time      4.5340: real time      4.5659

 eigenvalue-minimisations  :   960
 total energy-change (2. order) :-0.4545170E-01  (-0.4541541E-01)
 number of electron     301.9999935 magnetization      30.7231528
 augmentation part      174.9186746 magnetization      24.7501818

 Broyden mixing:
  rms(total) = 0.44112E+01    rms(broyden)= 0.44104E+01
  rms(prec ) = 0.48470E+01
  weight for this iteration     100.00

 Free energy of the ion-electron system (eV)
  ---------------------------------------------------
  alpha Z        PSCENC =       113.16553179
  Ewald energy   TEWEN  =     55957.04881956
  -Hartree energ DENC   =    -85794.26217929
  -exchange      EXHF   =         0.00000000
  -V(xc)+E(xc)   XCENC  =       936.27076537
  PAW double counting   =     28888.58386782   -30893.72677109
  entropy T*S    EENTRO =        -0.01488125
  eigenvalues    EBANDS =     -1711.57720607
  atomic energy  EATOM  =     32354.87237921
  Solvation  Ediel_sol  =         0.00000000
  ---------------------------------------------------
  free energy    TOTEN  =      -149.63967394 eV

  energy without entropy =     -149.62479270  energy(sigma->0) =     -149.63223332


--------------------------------------------------------------------------------------------------------




--------------------------------------- Iteration      1(   6)  ---------------------------------------


    POTLOK:  cpu time      0.4432: real time      0.4509
    SETDIJ:  cpu time      0.0121: real time      0.0121
     EDDAV:  cpu time      5.3170: real time      5.3308
       DOS:  cpu time      0.0014: real time      0.0014
    CHARGE:  cpu time      0.1716: real time      0.1720
    MIXING:  cpu time      0.0105: real time      0.0117
    --------------------------------------------
      LOOP:  cpu time      5.9559: real time      5.9790

 eigenvalue-minimisations  :  1248
 total energy-change (2. order) :-0.1720323E+05  (-0.1614889E+05)
 number of electron     301.9999940 magnetization      30.7146739
 augmentation part      182.7694480 magnetization      26.4277684

 Broyden mixing:
  rms(total) = 0.12557E+02    rms(broyden)= 0.12429E+02
  rms(prec ) = 0.13737E+02
  weight for this iteration     100.00

 eigenvalues of (default mixing * dielectric matrix)
  average eigenvalue GAMMA=   0.0780
  0.0780

 Free energy of the ion-electron system (eV)
  ---------------------------------------------------
  alpha Z        PSCENC =       113.16553179
  Ewald energy   TEWEN  =     55957.04881956
  -Hartree energ DENC   =    -85464.30907642
  -exchange      EXHF   =         0.00000000
  -V(xc)+E(xc)   XCENC  =       911.62767929
  PAW double counting   =     30557.27306558   -32476.00981768
  entropy T*S    EENTRO =        -0.00925777
  eigenvalues    EBANDS =    -19306.52617796
  atomic energy  EATOM  =     32354.87237921
  Solvation  Ediel_sol  =         0.00000000
  ---------------------------------------------------
  free energy    TOTEN  =    -17352.86685439 eV

  energy without entropy =   -17352.85759662  energy(sigma->0) =   -17352.86222550


--------------------------------------------------------------------------------------------------------




--------------------------------------- Iteration      1(   7)  ---------------------------------------


    POTLOK:  cpu time      0.4403: real time      0.4475
    SETDIJ:  cpu time      0.0090: real time      0.0090
     EDDAV:  cpu time      3.9107: real time      3.9208
       DOS:  cpu time      0.0020: real time      0.0020
    CHARGE:  cpu time      0.1717: real time      0.1723
    MIXING:  cpu time      0.0099: real time      0.0100
    --------------------------------------------
      LOOP:  cpu time      4.5436: real time      4.5615

 eigenvalue-minimisations  :   846
 total energy-change (2. order) : 0.1724698E+05  (-0.8397978E+03)
 number of electron     301.9999932 magnetization      29.6253620
 augmentation part      196.0369727 magnetization      25.4833075

 Broyden mixing:
  rms(total) = 0.49209E+01    rms(broyden)= 0.47061E+01
  rms(prec ) = 0.50826E+01
  weight for this iteration     100.00

 eigenvalues of (default mixing * dielectric matrix)
  average eigenvalue GAMMA=   0.2267
  0.2727  0.1807

 Free energy of the ion-electron system (eV)
  ---------------------------------------------------
  alpha Z        PSCENC =       113.16553179
  Ewald energy   TEWEN  =     55957.04881956
  -Hartree energ DENC   =    -85387.45629333
  -exchange      EXHF   =         0.00000000
  -V(xc)+E(xc)   XCENC  =       919.90261264
  PAW double counting   =     30773.12438981   -32697.12859896
  entropy T*S    EENTRO =        -0.01044830
  eigenvalues    EBANDS =     -2139.40721939
  atomic energy  EATOM  =     32354.87237921
  Solvation  Ediel_sol  =         0.00000000
  ---------------------------------------------------
  free energy    TOTEN  =      -105.88882696 eV

  energy without entropy =     -105.87837866  energy(sigma->0) =     -105.88360281


--------------------------------------------------------------------------------------------------------




--------------------------------------- Iteration      1(   8)  ---------------------------------------


    POTLOK:  cpu time      0.4351: real time      0.4425
    SETDIJ:  cpu time      0.0089: real time      0.0090
     EDDAV:  cpu time      4.2859: real time      4.2968
       DOS:  cpu time      0.0009: real time      0.0009
    CHARGE:  cpu time      0.1786: real time      0.1790
    MIXING:  cpu time      0.0102: real time      0.0106
    --------------------------------------------
      LOOP:  cpu time      4.9197: real time      4.9387

 eigenvalue-minimisations  :   948
 total energy-change (2. order) :-0.2306974E+02  (-0.2023662E+02)
 number of electron     301.9999932 magnetization      28.9955928
 augmentation part      188.5532838 magnetization      24.4971323

 Broyden mixing:
  rms(total) = 0.54300E+01    rms(broyden)= 0.54219E+01
  rms(prec ) = 0.61473E+01
  weight for this iteration     100.00

 eigenvalues of (default mixing * dielectric matrix)
  average eigenvalue GAMMA=   0.2848
  0.5223  0.1660  0.1660

 Free energy of the ion-electron system (eV)
  ---------------------------------------------------
  alpha Z        PSCENC =       113.16553179
  Ewald energy   TEWEN  =     55957.04881956
  -Hartree energ DENC   =    -85644.81448040
  -exchange      EXHF   =         0.00000000
  -V(xc)+E(xc)   XCENC  =       920.63535336
  PAW double counting   =     31565.37606080   -33561.65655178
  entropy T*S    EENTRO =        -0.01201006
  eigenvalues    EBANDS =     -1833.57367262
  atomic energy  EATOM  =     32354.87237921
  Solvation  Ediel_sol  =         0.00000000
  ---------------------------------------------------
  free energy    TOTEN  =      -128.95857012 eV

  energy without entropy =     -128.94656006  energy(sigma->0) =     -128.95256509


--------------------------------------------------------------------------------------------------------




--------------------------------------- Iteration      1(   9)  ---------------------------------------


    POTLOK:  cpu time      0.4339: real time      0.4413
    SETDIJ:  cpu time      0.0089: real time      0.0089
     EDDAV:  cpu time      4.0419: real time      4.0522
       DOS:  cpu time      0.0008: real time      0.0008
    CHARGE:  cpu time      0.1742: real time      0.1746
    MIXING:  cpu time      0.0101: real time      0.0102
    --------------------------------------------
      LOOP:  cpu time      4.6698: real time      4.6880

 eigenvalue-minimisations  :   882
 total energy-change (2. order) :-0.6949700E+01  (-0.9593923E+01)
 number of electron     301.9999950 magnetization      28.2935462
 augmentation part      185.3758174 magnetization      23.6322454

 Broyden mixing:
  rms(total) = 0.47175E+01    rms(broyden)= 0.47164E+01
  rms(prec ) = 0.54475E+01
  weight for this iteration     100.00

 eigenvalues of (default mixing * dielectric matrix)
  average eigenvalue GAMMA=   0.3224
  0.7431  0.2661  0.1401  0.1401

 Free energy of the ion-electron system (eV)
  ---------------------------------------------------
  alpha Z        PSCENC =       113.16553179
  Ewald energy   TEWEN  =     55957.04881956
  -Hartree energ DENC   =    -85730.34283576
  -exchange      EXHF   =         0.00000000
  -V(xc)+E(xc)   XCENC  =       922.28195612
  PAW double counting   =     32186.86169382   -34213.40530133
  entropy T*S    EENTRO =        -0.01240591
  eigenvalues    EBANDS =     -1726.37810809
  atomic energy  EATOM  =     32354.87237921
  Solvation  Ediel_sol  =         0.00000000
  ---------------------------------------------------
  free energy    TOTEN  =      -135.90827059 eV

  energy without entropy =     -135.89586468  energy(sigma->0) =     -135.90206764


--------------------------------------------------------------------------------------------------------




--------------------------------------- Iteration      1(  10)  ---------------------------------------


    POTLOK:  cpu time      0.4347: real time      0.4471
    SETDIJ:  cpu time      0.0090: real time      0.0090
     EDDAV:  cpu time      4.1137: real time      4.1243
       DOS:  cpu time      0.0010: real time      0.0010
    CHARGE:  cpu time      0.1766: real time      0.1770
    MIXING:  cpu time      0.0118: real time      0.0118
    --------------------------------------------
      LOOP:  cpu time      4.7468: real time      4.7703

 eigenvalue-minimisations  :   904
 total energy-change (2. order) :-0.6294697E+01  (-0.3626239E+01)
 number of electron     301.9999926 magnetization      27.1740575
 augmentation part      183.5813171 magnetization      22.4880314

 Broyden mixing:
  rms(total) = 0.54683E+01    rms(broyden)= 0.54677E+01
  rms(prec ) = 0.64259E+01
  weight for this iteration     100.00

 eigenvalues of (default mixing * dielectric matrix)
  average eigenvalue GAMMA=   0.3886
  1.1470  0.3842  0.1447  0.1447  0.1223

 Free energy of the ion-electron system (eV)
  ---------------------------------------------------
  alpha Z        PSCENC =       113.16553179
  Ewald energy   TEWEN  =     55957.04881956
  -Hartree energ DENC   =    -85766.21171605
  -exchange      EXHF   =         0.00000000
  -V(xc)+E(xc)   XCENC  =       922.11714774
  PAW double counting   =     32598.83904180   -34640.00209840
  entropy T*S    EENTRO =        -0.00966573
  eigenvalues    EBANDS =     -1682.02240711
  atomic energy  EATOM  =     32354.87237921
  Solvation  Ediel_sol  =         0.00000000
  ---------------------------------------------------
  free energy    TOTEN  =      -142.20296717 eV

  energy without entropy =     -142.19330145  energy(sigma->0) =     -142.19813431


--------------------------------------------------------------------------------------------------------




--------------------------------------- Iteration      1(  11)  ---------------------------------------


    POTLOK:  cpu time      0.4341: real time      0.4414
    SETDIJ:  cpu time      0.0090: real time      0.0091
     EDDAV:  cpu time      3.9926: real time      4.0028
       DOS:  cpu time      0.0017: real time      0.0017
    CHARGE:  cpu time      0.1736: real time      0.1742
    MIXING:  cpu time      0.0105: real time      0.0105
    --------------------------------------------
      LOOP:  cpu time      4.6216: real time      4.6396

 eigenvalue-minimisations  :   864
 total energy-change (2. order) : 0.4425709E+01  (-0.2995919E+01)
 number of electron     301.9999923 magnetization      26.7268020
 augmentation part      184.7395532 magnetization      22.5790555

 Broyden mixing:
  rms(total) = 0.49086E+01    rms(broyden)= 0.49078E+01
  rms(prec ) = 0.57261E+01
  weight for this iteration     100.00

 eigenvalues of (default mixing * dielectric matrix)
  average eigenvalue GAMMA=   0.3740
  1.2885  0.4065  0.1458  0.1458  0.1574  0.1003

 Free energy of the ion-electron system (eV)
  ---------------------------------------------------
  alpha Z        PSCENC =       113.16553179
  Ewald energy   TEWEN  =     55957.04881956
  -Hartree energ DENC   =    -85766.68869788
  -exchange      EXHF   =         0.00000000
  -V(xc)+E(xc)   XCENC  =       920.90161642
  PAW double counting   =     32978.50410869   -35031.36154403
  entropy T*S    EENTRO =        -0.01017372
  eigenvalues    EBANDS =     -1664.20929851
  atomic energy  EATOM  =     32354.87237921
  Solvation  Ediel_sol  =         0.00000000
  ---------------------------------------------------
  free energy    TOTEN  =      -137.77725846 eV

  energy without entropy =     -137.76708474  energy(sigma->0) =     -137.77217160


--------------------------------------------------------------------------------------------------------




--------------------------------------- Iteration      1(  12)  ---------------------------------------


    POTLOK:  cpu time      0.4348: real time      0.4463
    SETDIJ:  cpu time      0.0090: real time      0.0090
     EDDAV:  cpu time      3.9979: real time      4.0081
       DOS:  cpu time      0.0008: real time      0.0008
    CHARGE:  cpu time      0.1776: real time      0.1780
    MIXING:  cpu time      0.0106: real time      0.0106
    --------------------------------------------
      LOOP:  cpu time      4.6307: real time      4.6529

 eigenvalue-minimisations  :   856
 total energy-change (2. order) : 0.6262153E+01  (-0.1975105E+01)
 number of electron     301.9999934 magnetization      26.4405191
 augmentation part      186.1020228 magnetization      22.8424535

 Broyden mixing:
  rms(total) = 0.27665E+01    rms(broyden)= 0.27655E+01
  rms(prec ) = 0.32370E+01
  weight for this iteration     100.00

 eigenvalues of (default mixing * dielectric matrix)
  average eigenvalue GAMMA=   0.3586
  1.3464  0.3424  0.3424  0.1348  0.1348  0.1219  0.0872

 Free energy of the ion-electron system (eV)
  ---------------------------------------------------
  alpha Z        PSCENC =       113.16553179
  Ewald energy   TEWEN  =     55957.04881956
  -Hartree energ DENC   =    -85760.71423953
  -exchange      EXHF   =         0.00000000
  -V(xc)+E(xc)   XCENC  =       920.14503440
  PAW double counting   =     33064.90845139   -35119.36436937
  entropy T*S    EENTRO =        -0.01390129
  eigenvalues    EBANDS =     -1661.56281166
  atomic energy  EATOM  =     32354.87237921
  Solvation  Ediel_sol  =         0.00000000
  ---------------------------------------------------
  free energy    TOTEN  =      -131.51510549 eV

  energy without entropy =     -131.50120420  energy(sigma->0) =     -131.50815485


--------------------------------------------------------------------------------------------------------




--------------------------------------- Iteration      1(  13)  ---------------------------------------


    POTLOK:  cpu time      0.4337: real time      0.4407
    SETDIJ:  cpu time      0.0090: real time      0.0091
     EDDAV:  cpu time      4.1004: real time      4.1109
       DOS:  cpu time      0.0008: real time      0.0008
    CHARGE:  cpu time      0.1743: real time      0.1747
    MIXING:  cpu time      0.0108: real time      0.0110
    --------------------------------------------
      LOOP:  cpu time      4.7290: real time      4.7472

 eigenvalue-minimisations  :   896
 total energy-change (2. order) : 0.4384144E+00  (-0.7266209E+00)
 number of electron     301.9999933 magnetization      25.9796402
 augmentation part      186.3131924 magnetization      22.3401762

 Broyden mixing:
  rms(total) = 0.29333E+01    rms(broyden)= 0.29327E+01
  rms(prec ) = 0.34414E+01
  weight for this iteration     100.00

 eigenvalues of (default mixing * dielectric matrix)
  average eigenvalue GAMMA=   0.3647
  1.4252  0.4611  0.4611  0.1377  0.1377  0.1111  0.1111  0.0726

 Free energy of the ion-electron system (eV)
  ---------------------------------------------------
  alpha Z        PSCENC =       113.16553179
  Ewald energy   TEWEN  =     55957.04881956
  -Hartree energ DENC   =    -85765.71763862
  -exchange      EXHF   =         0.00000000
  -V(xc)+E(xc)   XCENC  =       919.95259130
  PAW double counting   =     33115.76470963   -35170.38439000
  entropy T*S    EENTRO =        -0.01344548
  eigenvalues    EBANDS =     -1655.76524849
  atomic energy  EATOM  =     32354.87237921
  Solvation  Ediel_sol  =         0.00000000
  ---------------------------------------------------
  free energy    TOTEN  =      -131.07669110 eV

  energy without entropy =     -131.06324562  energy(sigma->0) =     -131.06996836


--------------------------------------------------------------------------------------------------------




--------------------------------------- Iteration      1(  14)  ---------------------------------------


    POTLOK:  cpu time      0.4359: real time      0.4431
    SETDIJ:  cpu time      0.0089: real time      0.0089
     EDDAV:  cpu time      4.1358: real time      4.1456
       DOS:  cpu time      0.0007: real time      0.0007
    CHARGE:  cpu time      0.1793: real time      0.1797
    MIXING:  cpu time      0.0111: real time      0.0111
    --------------------------------------------
      LOOP:  cpu time      4.7716: real time      4.7891

 eigenvalue-minimisations  :   904
 total energy-change (2. order) : 0.2830795E+00  (-0.4912994E+00)
 number of electron     301.9999933 magnetization      25.6219666
 augmentation part      186.2583140 magnetization      22.0646422

 Broyden mixing:
  rms(total) = 0.22203E+01    rms(broyden)= 0.22196E+01
  rms(prec ) = 0.25695E+01
  weight for this iteration     100.00

 eigenvalues of (default mixing * dielectric matrix)
  average eigenvalue GAMMA=   0.3519
  1.4839  0.4943  0.4943  0.1417  0.1417  0.1193  0.1193  0.1036  0.0686

 Free energy of the ion-electron system (eV)
  ---------------------------------------------------
  alpha Z        PSCENC =       113.16553179
  Ewald energy   TEWEN  =     55957.04881956
  -Hartree energ DENC   =    -85774.85797798
  -exchange      EXHF   =         0.00000000
  -V(xc)+E(xc)   XCENC  =       919.61482023
  PAW double counting   =     33180.49138898   -35234.69937995
  entropy T*S    EENTRO =        -0.01296962
  eigenvalues    EBANDS =     -1646.41622382
  atomic energy  EATOM  =     32354.87237921
  Solvation  Ediel_sol  =         0.00000000
  ---------------------------------------------------
  free energy    TOTEN  =      -130.79361159 eV

  energy without entropy =     -130.78064197  energy(sigma->0) =     -130.78712678


--------------------------------------------------------------------------------------------------------




--------------------------------------- Iteration      1(  15)  ---------------------------------------


    POTLOK:  cpu time      0.4366: real time      0.4487
    SETDIJ:  cpu time      0.0089: real time      0.0090
     EDDAV:  cpu time      3.9227: real time      3.9320
       DOS:  cpu time      0.0007: real time      0.0007
    CHARGE:  cpu time      0.1780: real time      0.1784
    MIXING:  cpu time      0.0120: real time      0.0120
    --------------------------------------------
      LOOP:  cpu time      4.5589: real time      4.5808

 eigenvalue-minimisations  :   842
 total energy-change (2. order) : 0.5494190E+00  (-0.3892871E+00)
 number of electron     301.9999933 magnetization      25.4206789
 augmentation part      186.2709008 magnetization      22.0077728

 Broyden mixing:
  rms(total) = 0.17544E+01    rms(broyden)= 0.17536E+01
  rms(prec ) = 0.20575E+01
  weight for this iteration     100.00

 eigenvalues of (default mixing * dielectric matrix)
  average eigenvalue GAMMA=   0.3353
  1.4941  0.5100  0.5100  0.1849  0.1372  0.1372  0.1367  0.1000  0.0716  0.0716

 Free energy of the ion-electron system (eV)
  ---------------------------------------------------
  alpha Z        PSCENC =       113.16553179
  Ewald energy   TEWEN  =     55957.04881956
  -Hartree energ DENC   =    -85784.00348803
  -exchange      EXHF   =         0.00000000
  -V(xc)+E(xc)   XCENC  =       919.34549874
  PAW double counting   =     33227.91228552   -35281.95517594
  entropy T*S    EENTRO =        -0.01412816
  eigenvalues    EBANDS =     -1636.61591526
  atomic energy  EATOM  =     32354.87237921
  Solvation  Ediel_sol  =         0.00000000
  ---------------------------------------------------
  free energy    TOTEN  =      -130.24419256 eV

  energy without entropy =     -130.23006440  energy(sigma->0) =     -130.23712848


--------------------------------------------------------------------------------------------------------




--------------------------------------- Iteration      1(  16)  ---------------------------------------


    POTLOK:  cpu time      0.4368: real time      0.4496
    SETDIJ:  cpu time      0.0087: real time      0.0087
     EDDAV:  cpu time      4.0478: real time      4.0574
       DOS:  cpu time      0.0009: real time      0.0009
    CHARGE:  cpu time      0.1767: real time      0.1772
    MIXING:  cpu time      0.0116: real time      0.0116
    --------------------------------------------
      LOOP:  cpu time      4.6825: real time      4.7053

 eigenvalue-minimisations  :   880
 total energy-change (2. order) : 0.2585513E+00  (-0.2604545E+00)
 number of electron     301.9999928 magnetization      25.1221960
 augmentation part      186.3097604 magnetization      21.8195019

 Broyden mixing:
  rms(total) = 0.10455E+01    rms(broyden)= 0.10448E+01
  rms(prec ) = 0.12056E+01
  weight for this iteration     100.00

 eigenvalues of (default mixing * dielectric matrix)
  average eigenvalue GAMMA=   0.3364
  1.4780  0.5788  0.5788  0.3103  0.1385  0.1385  0.1406  0.1007  0.1007  0.0675
  0.0675

 Free energy of the ion-electron system (eV)
  ---------------------------------------------------
  alpha Z        PSCENC =       113.16553179
  Ewald energy   TEWEN  =     55957.04881956
  -Hartree energ DENC   =    -85789.52095521
  -exchange      EXHF   =         0.00000000
  -V(xc)+E(xc)   XCENC  =       919.32253893
  PAW double counting   =     33240.27393690   -35293.92847667
  entropy T*S    EENTRO =        -0.01233271
  eigenvalues    EBANDS =     -1631.20708309
  atomic energy  EATOM  =     32354.87237921
  Solvation  Ediel_sol  =         0.00000000
  ---------------------------------------------------
  free energy    TOTEN  =      -129.98564129 eV

  energy without entropy =     -129.97330858  energy(sigma->0) =     -129.97947493


--------------------------------------------------------------------------------------------------------




--------------------------------------- Iteration      1(  17)  ---------------------------------------


    POTLOK:  cpu time      0.4369: real time      0.4489
    SETDIJ:  cpu time      0.0088: real time      0.0088
     EDDAV:  cpu time      4.0800: real time      4.0896
       DOS:  cpu time      0.0006: real time      0.0006
    CHARGE:  cpu time      0.1780: real time      0.1784
    MIXING:  cpu time      0.0117: real time      0.0118
    --------------------------------------------
      LOOP:  cpu time      4.7160: real time      4.7381

 eigenvalue-minimisations  :   888
 total energy-change (2. order) :-0.1031087E+00  (-0.5706747E-01)
 number of electron     301.9999934 magnetization      24.9028554
 augmentation part      186.2431158 magnetization      21.6994610

 Broyden mixing:
  rms(total) = 0.90170E+00    rms(broyden)= 0.90142E+00
  rms(prec ) = 0.10182E+01
  weight for this iteration     100.00

 eigenvalues of (default mixing * dielectric matrix)
  average eigenvalue GAMMA=   0.3238
  1.4751  0.6095  0.6095  0.3172  0.1431  0.1431  0.1540  0.1053  0.1053  0.0899
  0.0668  0.0668

 Free energy of the ion-electron system (eV)
  ---------------------------------------------------
  alpha Z        PSCENC =       113.16553179
  Ewald energy   TEWEN  =     55957.04881956
  -Hartree energ DENC   =    -85800.60056031
  -exchange      EXHF   =         0.00000000
  -V(xc)+E(xc)   XCENC  =       919.34164402
  PAW double counting   =     33244.78138923   -35297.94758742
  entropy T*S    EENTRO =        -0.00912816
  eigenvalues    EBANDS =     -1620.74123793
  atomic energy  EATOM  =     32354.87237921
  Solvation  Ediel_sol  =         0.00000000
  ---------------------------------------------------
  free energy    TOTEN  =      -130.08874999 eV

  energy without entropy =     -130.07962183  energy(sigma->0) =     -130.08418591


--------------------------------------------------------------------------------------------------------




--------------------------------------- Iteration      1(  18)  ---------------------------------------


    POTLOK:  cpu time      0.4371: real time      0.4442
    SETDIJ:  cpu time      0.0091: real time      0.0091
     EDDAV:  cpu time      3.9922: real time      4.0024
       DOS:  cpu time      0.0009: real time      0.0009
    CHARGE:  cpu time      0.1769: real time      0.1773
    MIXING:  cpu time      0.0119: real time      0.0120
    --------------------------------------------
      LOOP:  cpu time      4.6281: real time      4.6459

 eigenvalue-minimisations  :   864
 total energy-change (2. order) : 0.4117037E-02  (-0.4405802E-01)
 number of electron     301.9999932 magnetization      24.6104698
 augmentation part      186.2444310 magnetization      21.5160309

 Broyden mixing:
  rms(total) = 0.65882E+00    rms(broyden)= 0.65856E+00
  rms(prec ) = 0.74711E+00
  weight for this iteration     100.00

 eigenvalues of (default mixing * dielectric matrix)
  average eigenvalue GAMMA=   0.3316
  1.4738  0.6262  0.6262  0.3695  0.3695  0.1412  0.1412  0.1207  0.1207  0.1021
  0.0868  0.0668  0.0668

 Free energy of the ion-electron system (eV)
  ---------------------------------------------------
  alpha Z        PSCENC =       113.16553179
  Ewald energy   TEWEN  =     55957.04881956
  -Hartree energ DENC   =    -85807.70882830
  -exchange      EXHF   =         0.00000000
  -V(xc)+E(xc)   XCENC  =       919.37627169
  PAW double counting   =     33247.01030460   -35299.81546029
  entropy T*S    EENTRO =        -0.00797834
  eigenvalues    EBANDS =     -1614.02567289
  atomic energy  EATOM  =     32354.87237921
  Solvation  Ediel_sol  =         0.00000000
  ---------------------------------------------------
  free energy    TOTEN  =      -130.08463295 eV

  energy without entropy =     -130.07665462  energy(sigma->0) =     -130.08064379


--------------------------------------------------------------------------------------------------------




--------------------------------------- Iteration      1(  19)  ---------------------------------------


    POTLOK:  cpu time      0.5136: real time      0.5264
    SETDIJ:  cpu time      0.0089: real time      0.0089
     EDDAV:  cpu time      4.0295: real time      4.0398
       DOS:  cpu time      0.0014: real time      0.0013
    CHARGE:  cpu time      0.1748: real time      0.1752
    MIXING:  cpu time      0.0122: real time      0.0122
    --------------------------------------------
      LOOP:  cpu time      4.7404: real time      4.7640

 eigenvalue-minimisations  :   872
 total energy-change (2. order) :-0.2363845E+00  (-0.3480548E-01)
 number of electron     301.9999928 magnetization      23.9289615
 augmentation part      186.2608466 magnetization      20.8952443

 Broyden mixing:
  rms(total) = 0.88612E+00    rms(broyden)= 0.88578E+00
  rms(prec ) = 0.10332E+01
  weight for this iteration     100.00

 eigenvalues of (default mixing * dielectric matrix)
  average eigenvalue GAMMA=   0.3670
  1.5101  0.8720  0.8720  0.4717  0.4717  0.1404  0.1404  0.1242  0.1242  0.1024
  0.1024  0.0702  0.0702  0.0653

 Free energy of the ion-electron system (eV)
  ---------------------------------------------------
  alpha Z        PSCENC =       113.16553179
  Ewald energy   TEWEN  =     55957.04881956
  -Hartree energ DENC   =    -85815.76094257
  -exchange      EXHF   =         0.00000000
  -V(xc)+E(xc)   XCENC  =       919.31509885
  PAW double counting   =     33247.16606972   -35299.30927927
  entropy T*S    EENTRO =        -0.00895289
  eigenvalues    EBANDS =     -1606.80974183
  atomic energy  EATOM  =     32354.87237921
  Solvation  Ediel_sol  =         0.00000000
  ---------------------------------------------------
  free energy    TOTEN  =      -130.32101742 eV

  energy without entropy =     -130.31206453  energy(sigma->0) =     -130.31654097


--------------------------------------------------------------------------------------------------------




--------------------------------------- Iteration      1(  20)  ---------------------------------------


    POTLOK:  cpu time      0.4355: real time      0.4476
    SETDIJ:  cpu time      0.0090: real time      0.0090
     EDDAV:  cpu time      4.0021: real time      4.0124
       DOS:  cpu time      0.0014: real time      0.0014
    CHARGE:  cpu time      0.1801: real time      0.1805
    MIXING:  cpu time      0.0132: real time      0.0132
    --------------------------------------------
      LOOP:  cpu time      4.6411: real time      4.6641

 eigenvalue-minimisations  :   866
 total energy-change (2. order) :-0.2981063E+00  (-0.5195445E-01)
 number of electron     301.9999933 magnetization      23.3762077
 augmentation part      186.3099882 magnetization      20.5306435

 Broyden mixing:
  rms(total) = 0.97298E+00    rms(broyden)= 0.97240E+00
  rms(prec ) = 0.11413E+01
  weight for this iteration     100.00

 eigenvalues of (default mixing * dielectric matrix)
  average eigenvalue GAMMA=   0.3723
  1.5353  1.0036  1.0036  0.4854  0.4854  0.1410  0.1410  0.1435  0.1435  0.1075
  0.1075  0.0853  0.0711  0.0653  0.0653

 Free energy of the ion-electron system (eV)
  ---------------------------------------------------
  alpha Z        PSCENC =       113.16553179
  Ewald energy   TEWEN  =     55957.04881956
  -Hartree energ DENC   =    -85834.05402631
  -exchange      EXHF   =         0.00000000
  -V(xc)+E(xc)   XCENC  =       919.22720923
  PAW double counting   =     33258.51544744   -35309.49505795
  entropy T*S    EENTRO =        -0.00723250
  eigenvalues    EBANDS =     -1589.89219414
  atomic energy  EATOM  =     32354.87237921
  Solvation  Ediel_sol  =         0.00000000
  ---------------------------------------------------
  free energy    TOTEN  =      -130.61912367 eV

  energy without entropy =     -130.61189117  energy(sigma->0) =     -130.61550742


--------------------------------------------------------------------------------------------------------




--------------------------------------- Iteration      1(  21)  ---------------------------------------


    POTLOK:  cpu time      0.4397: real time      0.4522
    SETDIJ:  cpu time      0.0091: real time      0.0091
     EDDAV:  cpu time      3.9531: real time      3.9632
       DOS:  cpu time      0.0008: real time      0.0008
    CHARGE:  cpu time      0.1749: real time      0.1754
    MIXING:  cpu time      0.0128: real time      0.0131
    --------------------------------------------
      LOOP:  cpu time      4.5904: real time      4.6137

 eigenvalue-minimisations  :   848
 total energy-change (2. order) :-0.1334074E+00  (-0.6361649E-01)
 number of electron     301.9999932 magnetization      23.0068942
 augmentation part      186.3718542 magnetization      20.3536495

 Broyden mixing:
  rms(total) = 0.64456E+00    rms(broyden)= 0.64413E+00
  rms(prec ) = 0.74669E+00
  weight for this iteration     100.00

 eigenvalues of (default mixing * dielectric matrix)
  average eigenvalue GAMMA=   0.3771
  1.5552  1.0798  1.0798  0.4895  0.4895  0.3074  0.1408  0.1408  0.1420  0.1085
  0.1085  0.1079  0.0858  0.0665  0.0665  0.0653

 Free energy of the ion-electron system (eV)
  ---------------------------------------------------
  alpha Z        PSCENC =       113.16553179
  Ewald energy   TEWEN  =     55957.04881956
  -Hartree energ DENC   =    -85847.87251609
  -exchange      EXHF   =         0.00000000
  -V(xc)+E(xc)   XCENC  =       919.07040017
  PAW double counting   =     33267.31219730   -35317.09426761
  entropy T*S    EENTRO =        -0.01028349
  eigenvalues    EBANDS =     -1577.24479189
  atomic energy  EATOM  =     32354.87237921
  Solvation  Ediel_sol  =         0.00000000
  ---------------------------------------------------
  free energy    TOTEN  =      -130.75253103 eV

  energy without entropy =     -130.74224755  energy(sigma->0) =     -130.74738929


--------------------------------------------------------------------------------------------------------




--------------------------------------- Iteration      1(  22)  ---------------------------------------


    POTLOK:  cpu time      0.4361: real time      0.4481
    SETDIJ:  cpu time      0.0090: real time      0.0090
     EDDAV:  cpu time      4.0549: real time      4.0653
       DOS:  cpu time      0.0009: real time      0.0008
    CHARGE:  cpu time      0.1795: real time      0.1799
    MIXING:  cpu time      0.0133: real time      0.0133
    --------------------------------------------
      LOOP:  cpu time      4.6937: real time      4.7166

 eigenvalue-minimisations  :   880
 total energy-change (2. order) :-0.4588543E+00  (-0.4544732E-01)
 number of electron     301.9999932 magnetization      22.4413106
 augmentation part      186.4349259 magnetization      19.9173388

 Broyden mixing:
  rms(total) = 0.88752E+00    rms(broyden)= 0.88720E+00
  rms(prec ) = 0.10368E+01
  weight for this iteration     100.00

 eigenvalues of (default mixing * dielectric matrix)
  average eigenvalue GAMMA=   0.3878
  1.5669  1.1677  1.1677  0.5710  0.5710  0.4195  0.1407  0.1407  0.1440  0.1188
  0.1084  0.1084  0.0955  0.0756  0.0661  0.0661  0.0646

 Free energy of the ion-electron system (eV)
  ---------------------------------------------------
  alpha Z        PSCENC =       113.16553179
  Ewald energy   TEWEN  =     55957.04881956
  -Hartree energ DENC   =    -85856.27172008
  -exchange      EXHF   =         0.00000000
  -V(xc)+E(xc)   XCENC  =       918.80582185
  PAW double counting   =     33269.42682478   -35318.32405335
  entropy T*S    EENTRO =        -0.00697742
  eigenvalues    EBANDS =     -1569.92801165
  atomic energy  EATOM  =     32354.87237921
  Solvation  Ediel_sol  =         0.00000000
  ---------------------------------------------------
  free energy    TOTEN  =      -131.21138530 eV

  energy without entropy =     -131.20440788  energy(sigma->0) =     -131.20789659


--------------------------------------------------------------------------------------------------------




--------------------------------------- Iteration      1(  23)  ---------------------------------------


    POTLOK:  cpu time      0.4355: real time      0.4430
    SETDIJ:  cpu time      0.0091: real time      0.0091
     EDDAV:  cpu time      3.8550: real time      3.8649
       DOS:  cpu time      0.0026: real time      0.0026
    CHARGE:  cpu time      0.1749: real time      0.1754
    MIXING:  cpu time      0.0139: real time      0.0140
    --------------------------------------------
      LOOP:  cpu time      4.4910: real time      4.5089

 eigenvalue-minimisations  :   820
 total energy-change (2. order) :-0.5142488E+00  (-0.6142136E-01)
 number of electron     301.9999934 magnetization      22.1955262
 augmentation part      186.4736829 magnetization      19.8954409

 Broyden mixing:
  rms(total) = 0.62017E+00    rms(broyden)= 0.61976E+00
  rms(prec ) = 0.71532E+00
  weight for this iteration     100.00

 eigenvalues of (default mixing * dielectric matrix)
  average eigenvalue GAMMA=   0.3785
  1.5323  1.1975  1.1975  0.6008  0.6008  0.4231  0.1407  0.1407  0.1573  0.1308
  0.1308  0.1047  0.1047  0.0785  0.0785  0.0656  0.0656  0.0623

 Free energy of the ion-electron system (eV)
  ---------------------------------------------------
  alpha Z        PSCENC =       113.16553179
  Ewald energy   TEWEN  =     55957.04881956
  -Hartree energ DENC   =    -85868.88412497
  -exchange      EXHF   =         0.00000000
  -V(xc)+E(xc)   XCENC  =       918.37193816
  PAW double counting   =     33268.74244114   -35316.12704979
  entropy T*S    EENTRO =        -0.00828299
  eigenvalues    EBANDS =     -1558.90728623
  atomic energy  EATOM  =     32354.87237921
  Solvation  Ediel_sol  =         0.00000000
  ---------------------------------------------------
  free energy    TOTEN  =      -131.72563410 eV

  energy without entropy =     -131.71735111  energy(sigma->0) =     -131.72149261


--------------------------------------------------------------------------------------------------------




--------------------------------------- Iteration      1(  24)  ---------------------------------------


    POTLOK:  cpu time      0.4371: real time      0.4429
    SETDIJ:  cpu time      0.0090: real time      0.0090
     EDDAV:  cpu time      3.9535: real time      3.9635
       DOS:  cpu time      0.0008: real time      0.0008
    CHARGE:  cpu time      0.1793: real time      0.1797
    MIXING:  cpu time      0.0143: real time      0.0143
    --------------------------------------------
      LOOP:  cpu time      4.5939: real time      4.6103

 eigenvalue-minimisations  :   848
 total energy-change (2. order) :-0.2328658E+00  (-0.2674984E-01)
 number of electron     301.9999932 magnetization      21.8133344
 augmentation part      186.5198048 magnetization      19.6312677

 Broyden mixing:
  rms(total) = 0.31868E+00    rms(broyden)= 0.31846E+00
  rms(prec ) = 0.36286E+00
  weight for this iteration     100.00

 eigenvalues of (default mixing * dielectric matrix)
  average eigenvalue GAMMA=   0.3996
  1.3828  1.3828  1.3349  0.6705  0.6705  0.4592  0.4592  0.1408  0.1408  0.1431
  0.1290  0.1074  0.1074  0.1075  0.0858  0.0753  0.0659  0.0659  0.0628

 Free energy of the ion-electron system (eV)
  ---------------------------------------------------
  alpha Z        PSCENC =       113.16553179
  Ewald energy   TEWEN  =     55957.04881956
  -Hartree energ DENC   =    -85873.94225930
  -exchange      EXHF   =         0.00000000
  -V(xc)+E(xc)   XCENC  =       918.15749243
  PAW double counting   =     33263.55354251   -35310.19700664
  entropy T*S    EENTRO =        -0.00942687
  eigenvalues    EBANDS =     -1554.60757255
  atomic energy  EATOM  =     32354.87237921
  Solvation  Ediel_sol  =         0.00000000
  ---------------------------------------------------
  free energy    TOTEN  =      -131.95849986 eV

  energy without entropy =     -131.94907299  energy(sigma->0) =     -131.95378642


--------------------------------------------------------------------------------------------------------




--------------------------------------- Iteration      1(  25)  ---------------------------------------


[...]
 total charge-density along one line
 
 pseudopotential strength for first ion, spin component:           1
 -9.278   0.016  -0.006  -0.004   0.009  -9.594   0.015  -0.006
  0.016  -9.238  -0.003   0.000  -0.001   0.015  -9.555  -0.003
 -0.006  -0.003  -9.126  -0.065  -0.085  -0.006  -0.003  -9.447
 -0.004   0.000  -0.065  -9.166  -0.032  -0.004   0.000  -0.062
  0.009  -0.001  -0.085  -0.032  -9.070   0.008  -0.001  -0.081
 -9.594   0.015  -0.006  -0.004   0.008  -9.853   0.014  -0.005
  0.015  -9.555  -0.003   0.000  -0.001   0.014  -9.815  -0.003
 -0.006  -0.003  -9.447  -0.062  -0.081  -0.005  -0.003  -9.712
 -0.004   0.000  -0.062  -9.487  -0.031  -0.004   0.000  -0.059
  0.008  -0.001  -0.081  -0.031  -9.394   0.008  -0.001  -0.078
 -0.001   0.001  -0.000   0.005  -0.016  -0.001   0.001  -0.001
 -0.001   0.001  -0.001   0.008  -0.029  -0.001   0.001  -0.001
 -0.000  -0.007   0.000   0.000  -0.000  -0.000  -0.007   0.000
  0.000   0.000  -0.001  -0.003   0.002   0.000   0.000  -0.001
 -0.000   0.000   0.005  -0.004  -0.011  -0.000   0.000   0.005
  0.006  -0.007   0.000   0.000  -0.000   0.006  -0.006   0.000
  0.000   0.000   0.001   0.003   0.002   0.000   0.000   0.001
 -0.000   0.000   0.003  -0.003  -0.008  -0.000   0.000   0.002
 pseudopotential strength for first ion, spin component:           2
 -8.534  -0.033  -0.001  -0.000  -0.004  -8.883  -0.031  -0.001
 -0.033  -8.597  -0.000   0.003   0.002  -0.031  -8.943  -0.000
 -0.001  -0.000  -8.571   0.005  -0.040  -0.001  -0.000  -8.919
 -0.000   0.003   0.005  -8.496  -0.015  -0.000   0.003   0.005
 -0.004   0.002  -0.040  -0.015  -8.625  -0.004   0.002  -0.038
 -8.883  -0.031  -0.001  -0.000  -0.004  -9.174  -0.030  -0.001
 -0.031  -8.943  -0.000   0.003   0.002  -0.030  -9.232  -0.000
 -0.001  -0.000  -8.919   0.005  -0.038  -0.001  -0.000  -9.209
 -0.000   0.003   0.005  -8.847  -0.014  -0.000   0.003   0.005
 -0.004   0.002  -0.038  -0.014  -8.971  -0.003   0.002  -0.036
 -0.000   0.000  -0.002   0.005  -0.011  -0.000   0.000  -0.002
 -0.001   0.000  -0.003   0.008  -0.019  -0.001   0.000  -0.004
 -0.013  -0.006   0.000  -0.000   0.000  -0.013  -0.005   0.000
 -0.000  -0.000  -0.005  -0.014   0.000  -0.000  -0.000  -0.005
 -0.000  -0.000   0.008  -0.005  -0.015  -0.000  -0.000   0.008
 -0.012  -0.005   0.000  -0.000   0.000  -0.012  -0.005   0.000
 -0.000  -0.000  -0.005  -0.013   0.000  -0.000  -0.000  -0.005
 -0.000  -0.000   0.007  -0.005  -0.012  -0.000  -0.000   0.006
 total augmentation occupancy for first ion, spin component:           1
  2.379   0.198  -0.013  -0.009   0.017  -0.895  -0.122   0.006   0.004   0.000   0.005   0.002  -0.167   0.002  -0.003  -0.012
  0.198   1.953  -0.007   0.008  -0.011  -0.122  -0.388   0.002  -0.008   0.006  -0.003   0.001  -0.060  -0.002   0.000  -0.004
 -0.013  -0.007   2.512  -0.211  -0.219   0.006   0.002  -0.686   0.041   0.122   0.174  -0.041   0.003   0.005   0.109   0.000
 -0.009   0.008  -0.211   2.493  -0.076   0.004  -0.008   0.045  -0.808   0.018  -0.201   0.030   0.001  -0.138  -0.036   0.000
  0.017  -0.011  -0.219  -0.076   2.796   0.000   0.006   0.116   0.011  -0.893   0.090   0.051   0.004   0.029  -0.149   0.000
 -0.895  -0.122   0.006   0.004   0.000   1.094   0.082  -0.004  -0.002  -0.009  -0.006  -0.001   0.321  -0.001   0.001  -0.030
 -0.122  -0.388   0.002  -0.008   0.006   0.082   0.581   0.001   0.006  -0.003   0.003  -0.001   0.043   0.005   0.000  -0.004
  0.006   0.002  -0.686   0.045   0.116  -0.004   0.001   0.679   0.062  -0.074  -0.172   0.040  -0.003   0.058  -0.139   0.000
  0.004  -0.008   0.041  -0.808   0.011  -0.002   0.006   0.062   0.874   0.030   0.184  -0.029  -0.000   0.258   0.050  -0.000
  0.000   0.006   0.122   0.018  -0.893  -0.009  -0.003  -0.074   0.030   0.877  -0.126  -0.036  -0.010  -0.008   0.181   0.001
  0.005  -0.003   0.174  -0.201   0.090  -0.006   0.003  -0.172   0.184  -0.126   1.928  -0.189   0.007   0.080   0.343  -0.001
  0.002   0.001  -0.041   0.030   0.051  -0.001  -0.001   0.040  -0.029  -0.036  -0.189   0.027  -0.001  -0.010  -0.053   0.000
 -0.167  -0.060   0.003   0.001   0.004   0.321   0.043  -0.003  -0.000  -0.010   0.007  -0.001   0.148   0.000  -0.000  -0.014
  0.002  -0.002   0.005  -0.138   0.029  -0.001   0.005   0.058   0.258  -0.008   0.080  -0.010   0.000   0.118   0.009  -0.000
 -0.003   0.000   0.109  -0.036  -0.149   0.001   0.000  -0.139   0.050   0.181   0.343  -0.053  -0.000   0.009   0.136  -0.000
 -0.012  -0.004   0.000   0.000   0.000  -0.030  -0.004   0.000  -0.000   0.001  -0.001   0.000  -0.014  -0.000  -0.000   0.002
 -0.000  -0.000  -0.006  -0.016   0.001   0.000  -0.001  -0.006  -0.025  -0.001  -0.013   0.002  -0.000  -0.012  -0.002   0.000
 -0.001   0.000   0.008  -0.001  -0.021  -0.000  -0.000   0.015  -0.008  -0.018  -0.060   0.008  -0.000  -0.002  -0.020   0.000
 total augmentation occupancy for first ion, spin component:           2
  0.998  -0.126   0.013   0.010  -0.030  -0.415   0.057  -0.005  -0.004   0.013  -0.002  -0.000  -0.046  -0.001   0.002  -0.012
 -0.126   0.863   0.008   0.004   0.007   0.057  -0.387  -0.003  -0.001  -0.003  -0.000   0.000   0.019  -0.001  -0.000  -0.002
  0.013   0.008   0.550   0.163   0.132  -0.006  -0.003  -0.228  -0.064  -0.064   0.011   0.004  -0.001  -0.018  -0.001  -0.000
  0.010   0.004   0.163   0.799   0.048  -0.005  -0.001  -0.069  -0.330  -0.026   0.024   0.005  -0.001  -0.035  -0.006  -0.000
 -0.030   0.007   0.132   0.048   0.256   0.013  -0.003  -0.056  -0.017  -0.093  -0.025  -0.001   0.002  -0.010   0.021   0.000
 -0.415   0.057  -0.006  -0.005   0.013   0.083  -0.022   0.002   0.002  -0.005   0.001  -0.000  -0.001   0.000  -0.001   0.007
  0.057  -0.387  -0.003  -0.001  -0.003  -0.022   0.089   0.001  -0.000   0.001   0.000  -0.000  -0.008   0.000   0.000   0.002
 -0.005  -0.003  -0.228  -0.069  -0.056   0.002   0.001   0.021   0.020   0.022  -0.007  -0.003   0.000   0.001   0.005  -0.000
 -0.004  -0.001  -0.064  -0.330  -0.017   0.002  -0.000   0.020   0.060   0.007  -0.012   0.000   0.000  -0.002   0.001   0.000
  0.013  -0.003  -0.064  -0.026  -0.093  -0.005   0.001   0.022   0.007  -0.038   0.025  -0.002  -0.000   0.004  -0.017  -0.000
 -0.002  -0.000   0.011   0.024  -0.025   0.001   0.000  -0.007  -0.012   0.025  -0.143   0.035  -0.000  -0.009  -0.013   0.000
 -0.000   0.000   0.004   0.005  -0.001  -0.000  -0.000  -0.003   0.000  -0.002   0.035  -0.006   0.000   0.001   0.006  -0.000
 -0.046   0.019  -0.001  -0.001   0.002  -0.001  -0.008   0.000   0.000  -0.000  -0.000   0.000  -0.010   0.000   0.000   0.001
 -0.001  -0.001  -0.018  -0.035  -0.010   0.000   0.000   0.001  -0.002   0.004  -0.009   0.001   0.000  -0.008   0.001   0.000
  0.002  -0.000  -0.001  -0.006   0.021  -0.001   0.000   0.005   0.001  -0.017  -0.013   0.006   0.000   0.001  -0.007  -0.000
 -0.012  -0.002  -0.000  -0.000   0.000   0.007   0.002  -0.000   0.000  -0.000   0.000  -0.000   0.001   0.000  -0.000   0.000
 -0.000  -0.000  -0.004  -0.011  -0.001   0.000   0.000   0.002   0.006   0.000   0.001  -0.000   0.000   0.001   0.000   0.000
  0.000  -0.000   0.002  -0.002  -0.004  -0.000  -0.000  -0.002   0.001   0.004   0.003  -0.001  -0.000   0.000   0.001  -0.000


------------------------ aborting loop because EDIFF is reached ----------------------------------------


    CHARGE:  cpu time      0.1756: real time      0.1760
    FORLOC:  cpu time      0.0360: real time      0.0361
    FORNL :  cpu time      1.8887: real time      1.8934
    STRESS:  cpu time      1.8405: real time      1.8452
    FORCOR:  cpu time      0.4376: real time      0.4386
    FORHAR:  cpu time      0.0803: real time      0.0807
    MIXING:  cpu time      0.0104: real time      0.0104
    OFIELD:  cpu time      0.0000: real time      0.0000

  FORCE on cell =-STRESS in cart. coord.  units (eV):
  Direction    XX          YY          ZZ          XY          YZ          ZX
  --------------------------------------------------------------------------------------
  Alpha Z   113.16553   113.16553   113.16553
  Ewald   19997.70115 20133.31785 15999.94894    -3.79455   234.53034   501.58407
  Hartree 29868.42406 30027.32644 26171.62139    -8.59779   215.58847   457.30488
  E(xc)   -1652.02990 -1652.02681 -1652.40837     0.04424     0.11011     0.06379
  Local  -55671.91992-55964.52953-47989.36764    14.18289  -446.35385  -957.50745
  n-local  -295.41577  -297.61443  -298.10395    -0.07963    -0.39788    -0.17976
  augment  5284.16195  5286.07849  5295.53782    -0.17434    -0.13700     0.33005
  Kinetic  2353.66966  2352.36650  2357.92445    -1.43249    -3.31522    -1.63873
  Fock        0.00000     0.00000     0.00000     0.00000     0.00000     0.00000
  -------------------------------------------------------------------------------------
  Total      -2.24322    -1.91595    -1.68183     0.14834     0.02498    -0.04316
  in kB      -0.87745    -0.74944    -0.65786     0.05802     0.00977    -0.01688
  external pressure =       -0.76 kB  Pullay stress =        0.00 kB


 VOLUME and BASIS-vectors are now :
 -----------------------------------------------------------------------------
  energy-cutoff  :      400.00
  volume of cell :     4096.00
      direct lattice vectors                 reciprocal lattice vectors
    16.000000000  0.000000000  0.000000000     0.062500000  0.000000000  0.000000000
     0.000000000 16.000000000  0.000000000     0.000000000  0.062500000  0.000000000
     0.000000000  0.000000000 16.000000000     0.000000000  0.000000000  0.062500000

  length of vectors
    16.000000000 16.000000000 16.000000000     0.062500000  0.062500000  0.062500000


 FORCES acting on ions
    electron-ion (+dipol)            ewald-force                    non-local-force                 convergence-correction
 -----------------------------------------------------------------------------------------------
   0.164E+04 0.338E+02 0.373E+03   -.163E+04 -.338E+02 -.371E+03   -.687E+01 -.134E+00 -.193E+01   0.661E-02 0.485E-01 0.574E-01
   -.438E+02 0.719E+01 -.176E+04   0.431E+02 -.720E+01 0.176E+04   0.672E+00 0.133E-01 0.635E+01   0.152E-01 0.500E-02 -.177E-01
   -.528E+03 -.151E+04 0.693E+03   0.527E+03 0.151E+04 -.690E+03   0.142E+01 0.527E+01 -.312E+01   -.490E-01 0.117E-01 0.465E-01
   -.579E+03 0.150E+04 0.682E+03   0.577E+03 -.150E+04 -.679E+03   0.158E+01 -.526E+01 -.308E+01   0.225E-01 -.536E-01 0.702E-01
   0.122E+04 0.254E+02 -.131E+04   -.122E+04 -.254E+02 0.130E+04   -.454E+01 -.788E-01 0.388E+01   -.486E-01 0.162E-01 -.560E-01
   -.139E+04 -.102E+04 -.367E+03   0.138E+04 0.102E+04 0.365E+03   0.519E+01 0.305E+01 0.126E+01   -.383E-01 0.261E-01 0.529E-02
   -.142E+04 0.974E+03 -.376E+03   0.141E+04 -.971E+03 0.375E+03   0.534E+01 -.284E+01 0.127E+01   -.133E-01 -.898E-03 0.346E-01
   0.119E+04 -.952E+03 0.887E+03   -.118E+04 0.950E+03 -.884E+03   -.311E+01 0.278E+01 -.249E+01   0.177E-02 0.564E-01 0.918E-01
   0.115E+04 0.998E+03 0.886E+03   -.115E+04 -.995E+03 -.883E+03   -.298E+01 -.286E+01 -.244E+01   -.954E-01 0.324E-03 0.780E-01
   0.547E+03 0.163E+02 0.168E+04   -.545E+03 -.164E+02 -.168E+04   -.227E+01 -.359E-01 -.576E+01   -.699E-01 0.974E-01 -.195E-01
   -.278E+03 0.156E+04 -.708E+03   0.277E+03 -.156E+04 0.705E+03   0.289E+00 -.461E+01 0.238E+01   0.138E-01 0.155E-03 0.802E-01
   -.227E+03 -.157E+04 -.688E+03   0.227E+03 0.156E+04 0.686E+03   0.143E+00 0.463E+01 0.233E+01   -.582E-02 0.706E-02 -.256E-01
   -.137E+04 -.568E+03 0.945E+03   0.137E+04 0.566E+03 -.942E+03   0.346E+01 0.164E+01 -.342E+01   -.112E-01 0.636E-01 0.325E-01
   -.138E+04 0.531E+03 0.947E+03   0.138E+04 -.529E+03 -.944E+03   0.345E+01 -.151E+01 -.340E+01   0.628E-01 0.293E-01 0.307E-01
   0.575E+03 -.113E+04 -.119E+04   -.574E+03 0.113E+04 0.118E+04   -.101E+01 0.247E+01 0.262E+01   -.292E-01 0.894E-01 -.700E-01
   0.535E+03 0.116E+04 -.120E+04   -.534E+03 -.116E+04 0.119E+04   -.947E+00 -.250E+01 0.263E+01   0.225E-02 -.530E-01 -.499E-02
   0.757E+02 -.106E+04 0.136E+04   -.763E+02 0.106E+04 -.136E+04   0.630E+00 0.176E+01 -.249E+01   0.372E-02 0.127E+00 0.517E-01
   0.328E+02 0.107E+04 0.136E+04   -.335E+02 -.107E+04 -.136E+04   0.686E+00 -.171E+01 -.243E+01   0.509E-03 -.423E-01 -.110E-01
   0.628E+03 0.153E+04 0.722E+02   -.628E+03 -.152E+04 -.724E+02   -.705E+00 -.155E+01 0.642E-01   -.265E-01 -.155E-01 0.142E+00
   0.678E+03 -.150E+04 0.781E+02   -.677E+03 0.150E+04 -.782E+02   -.727E+00 0.149E+01 0.764E-01   0.253E-01 0.432E-03 0.368E-01
   0.142E+04 -.762E+03 -.430E+03   -.142E+04 0.760E+03 0.429E+03   -.154E+01 0.119E+01 0.320E+00   -.141E-01 0.340E-01 -.256E-01
   0.139E+04 0.813E+03 -.431E+03   -.139E+04 -.812E+03 0.430E+03   -.144E+01 -.120E+01 0.311E+00   -.645E-01 0.167E-01 0.230E-01
   -.598E+03 -.113E+02 0.151E+04   0.598E+03 0.111E+02 -.150E+04   0.702E+00 0.284E-01 -.805E+00   0.439E-01 0.112E+00 -.384E-01
   -.840E+03 -.602E+03 -.131E+04   0.839E+03 0.602E+03 0.131E+04   0.101E+01 0.583E+00 0.154E+01   -.335E-02 0.685E-01 -.282E-01
   -.855E+03 0.583E+03 -.132E+04   0.854E+03 -.583E+03 0.132E+04   0.100E+01 -.560E+00 0.153E+01   0.377E-01 -.210E-01 0.392E-02
   -.158E+04 -.244E+02 -.424E+03   0.158E+04 0.244E+02 0.424E+03   0.145E+01 0.196E-01 0.350E+00   0.314E-01 0.193E-01 0.722E-01
   0.255E+03 0.552E+01 -.650E+03   -.255E+03 -.556E+01 0.649E+03   -.297E+00 0.109E-01 0.723E+00   -.551E-01 0.322E-01 0.157E-01
   -.395E+03 -.593E+03 0.142E+03   0.395E+03 0.592E+03 -.142E+03   0.189E+00 0.503E+00 0.117E+00   0.149E-01 0.128E+00 0.495E-01
   -.410E+03 0.585E+03 0.134E+03   0.410E+03 -.584E+03 -.135E+03   0.200E+00 -.507E+00 0.127E+00   0.578E-01 0.121E-01 0.109E+00
   0.557E+03 0.950E+01 0.506E+03   -.556E+03 -.959E+01 -.506E+03   -.591E+00 -.277E-01 -.382E+00   -.391E-01 0.115E+00 0.897E-01
   0.591E+01 -.384E+02 -.436E+02   -.730E+01 0.349E+02 0.402E+02   0.140E+01 0.341E+01 0.340E+01   0.625E-04 0.954E-03 -.149E-02
   -.767E+01 -.526E+02 -.554E+02   0.907E+01 0.560E+02 0.588E+02   -.141E+01 -.340E+01 -.341E+01   -.145E-03 0.226E-03 -.142E-02
 -----------------------------------------------------------------------------------------------
   -.136E+00 -.102E+01 0.304E+01   -.725E-12 -.145E-11 -.284E-13   0.359E+00 0.691E-01 -.386E+01   -.223E+00 0.932E+00 0.821E+00
 
 
 POSITION                                       TOTAL-FORCE (eV/Angst)
 -----------------------------------------------------------------------------------
      3.87968      7.45173      6.29846         0.036001     -0.002343     -0.000695
      7.62633      7.51999     10.83278        -0.001678      0.005151     -0.001229
      9.04620     10.82159      6.13955        -0.011718     -0.013583      0.009271
      9.16511      4.25097      6.16059        -0.031383      0.007530     -0.000453
      5.40571      7.48330      9.97553         0.007710      0.002445     -0.004742
     10.55295      9.92672      7.86393        -0.012097     -0.014131     -0.000992
     10.63690      5.20623      7.87850        -0.032534      0.009700     -0.017804
      5.23259      9.17576      5.51859         0.025274     -0.008383      0.005252
      5.30220      5.78092      5.52282         0.023044     -0.002058      0.004948
      6.43966      7.48987      4.03389        -0.016826      0.001698      0.009644
      8.60065      4.22938      8.50208        -0.000273      0.007163      0.007154
      8.48610     10.83137      8.48767         0.005842     -0.001829      0.008180
     10.52535      8.78165      5.73976        -0.022556     -0.005469     -0.000576
     10.55063      6.33339      5.74203        -0.020644      0.021690     -0.000968
      6.76347      9.52320      9.51415        -0.002927      0.000204     -0.005451
      6.83158      5.49025      9.51347         0.008191      0.007562     -0.004985
      7.48951      9.51149      4.92355         0.007096     -0.004822      0.003052
      7.57634      5.52335      4.94141         0.001951      0.003066     -0.004993
      6.83705      4.81817      7.10347         0.016513      0.024224      0.010583
      6.74504     10.17591      7.09548         0.022680     -0.028045      0.012144
      5.12202      8.68536      7.90647         0.019493     -0.012250     -0.003641
      5.17370      6.27224      7.90574         0.008372     -0.001919     -0.004603
      8.70808      7.54320      4.90839        -0.014556     -0.000494     -0.012109
      9.15767      8.74504      9.43912        -0.023946      0.001471     -0.004792
      9.19456      6.33883      9.44422        -0.010489      0.016705     -0.009339
     10.55788      7.56366      7.83273        -0.007702      0.001547      0.011215
      7.23664      7.51638      8.55625        -0.005664     -0.000874     -0.006454
      8.58672      8.76067      7.04389         0.003871     -0.019360      0.007908
      8.62159      6.30169      7.05381        -0.002684      0.015162      0.000109
      6.60064      7.50658      6.30060         0.029538     -0.004385      0.002688
      7.78178     11.90915     12.00132         0.011385     -0.003187     -0.003263
      7.99225     12.41998     12.51183        -0.009284     -0.002186     -0.005057
 -----------------------------------------------------------------------------------
    total drift:                                0.000044     -0.018145     -0.004173


--------------------------------------------------------------------------------------------------------



  FREE ENERGIE OF THE ION-ELECTRON SYSTEM (eV)
  ---------------------------------------------------
  free  energy   TOTEN  =      -135.24930886 eV

  energy  without entropy=     -135.24411232  energy(sigma->0) =     -135.24671059
 
 d Force = 0.1064144E-02[ 0.916E-03, 0.121E-02]  d Energy = 0.1062154E-02 0.199E-05
 d Force =-0.4930661E+02[-0.493E+02,-0.493E+02]  d Ewald  =-0.4930661E+02-0.575E-06


--------------------------------------------------------------------------------------------------------


    POTLOK:  cpu time      0.4454: real time      0.4472


--------------------------------------------------------------------------------------------------------


 stress matrix after NEB project (eV)
     -2.24322      0.14834     -0.04316
      0.14834     -1.91595      0.02498
     -0.04316      0.02498     -1.68183
  FORCES: max atom, RMS     0.038335    0.021595
  FORCE total and by dimension    0.122161    0.036001
  Stress total and by dimension    3.403008    2.243224
 Quasi-Newton relaxation of ions (Broydens 2nd method)
  g(Force)  = 0.720E-03   g(Stress)= 0.000E+00

 retain information from N=  2 steps
 eigenvalues of (default step * inverse Hessian matrix)
  average eigenvalue of G=   1.6564
 eigenvalue spectrum of G is  0.3378  2.9751


--------------------------------------------------------------------------------------------------------


  
 reached required accuracy - stopping structural energy minimisation
     LOOP+:  cpu time     31.8099: real time     31.9634
    4ORBIT:  cpu time      0.0000: real time      0.0000

 total amount of memory used by VASP MPI-rank0    84390. kBytes
=======================================================================

   base      :      30000. kBytes
   nonl-proj :       2972. kBytes
   fftplans  :      11290. kBytes
   grid      :      28180. kBytes
   one-center:         62. kBytes
   wavefun   :      11886. kBytes
 
  
  
 General timing and accounting informations for this job:
 ========================================================
  
                  Total CPU time used (sec):      390.270
                            User time (sec):      389.412
                          System time (sec):        0.858
                         Elapsed time (sec):      393.824
  
                   Maximum memory used (kb):      367056.
                   Average memory used (kb):          N/A
  
                          Minor page faults:        57624
                          Major page faults:          230
                 Voluntary context switches:         7400
