<?xml version="1.0" encoding="ISO-8859-1"?>
<modeling>
 <generator>
  <i name="program" type="string">vasp </i>
  <i name="version" type="string">6.3.2  </i>
  <i name="subversion" type="string">27Jun22 (build Nov 14 2022 18:12:39) complex                          parallel </i>
  <i name="platform" type="string">Saga </i>
  <i name="date" type="string">2023 01 31 </i>
  <i name="time" type="string">13:56:28 </i>
 </generator>
 <incar>
  <i type="int" name="ISTART">     0</i>
  <i type="string" name="PREC">Accurate</i>
  <i type="int" name="ISPIN">     2</i>
  <i type="int" name="NELM">   120</i>
  <i type="int" name="IBRION">     1</i>
  <i name="EDIFFG">     -0.05000000</i>
  <i type="int" name="NSW">    40</i>
  <i type="int" name="ISYM">    -1</i>
  <i name="ENCUT">    400.00000000</i>
  <i type="int" name="ISMEAR">     0</i>
  <i name="SIGMA">      0.02000000</i>
  <i type="logical" name="LWAVE"> F  </i>
  <i type="logical" name="LCHARG"> F  </i>
  <i type="string" name="GGA">PE</i>
 </incar>
 <primitive_cell>
  <structure name="primitive_cell" >
   <crystal>
    <varray name="basis" >
     <v>      16.00000000       0.00000000       0.00000000 </v>
     <v>       0.00000000      16.00000000       0.00000000 </v>
     <v>       0.00000000       0.00000000      16.00000000 </v>
    </varray>
    <i name="volume">   4096.00000000 </i>
    <varray name="rec_basis" >
     <v>       0.06250000       0.00000000       0.00000000 </v>
     <v>       0.00000000       0.06250000       0.00000000 </v>
     <v>       0.00000000       0.00000000       0.06250000 </v>
    </varray>
   </crystal>
   <varray name="positions" >
    <v>       0.24204812       0.46574375       0.39358062 </v>
    <v>       0.47664750       0.46996062       0.67724500 </v>
    <v>       0.56549250       0.67648500       0.38362437 </v>
    <v>       0.57311312       0.26554500       0.38499375 </v>
    <v>       0.33768562       0.46766813       0.62356500 </v>
    <v>       0.65978875       0.62061375       0.49154062 </v>
    <v>       0.66524938       0.32527375       0.49257937 </v>
    <v>       0.32675000       0.57369062       0.34481625 </v>
    <v>       0.33114375       0.36122812       0.34507188 </v>
    <v>       0.40257313       0.46809063       0.25190625 </v>
    <v>       0.53750625       0.26414000       0.53140812 </v>
    <v>       0.53031438       0.67711438       0.53047625 </v>
    <v>       0.65811125       0.54895063       0.35866813 </v>
    <v>       0.65967312       0.39560375       0.35880750 </v>
    <v>       0.42268937       0.59525687       0.59476000 </v>
    <v>       0.42683313       0.34299625       0.59471812 </v>
    <v>       0.46809750       0.59455000       0.30764875 </v>
    <v>       0.47352250       0.34516125       0.30878812 </v>
    <v>       0.42711875       0.30087688       0.44386313 </v>
    <v>       0.42129875       0.63628937       0.44334312 </v>
    <v>       0.31992125       0.54301125       0.49424562 </v>
    <v>       0.32328812       0.39197125       0.49426000 </v>
    <v>       0.54435625       0.47145750       0.30680125 </v>
    <v>       0.57267187       0.54664000       0.59011250 </v>
    <v>       0.57482875       0.39594625       0.59044750 </v>
    <v>       0.66008312       0.47271500       0.48947438 </v>
    <v>       0.45226000       0.46980438       0.53473625 </v>
    <v>       0.53660750       0.54776313       0.44005500 </v>
    <v>       0.53881625       0.39369375       0.44078812 </v>
    <v>       0.41230875       0.46914563       0.39380312 </v>
    <v>       0.48638649       0.74459986       0.75035727 </v>
    <v>       0.49947518       0.77601271       0.78177012 </v>
   </varray>
  </structure>
  <varray name="primitive_index" >
   <v type="int" >        1 </v>
   <v type="int" >        2 </v>
   <v type="int" >        3 </v>
   <v type="int" >        4 </v>
   <v type="int" >        5 </v>
   <v type="int" >        6 </v>
   <v type="int" >        7 </v>
   <v type="int" >        8 </v>
   <v type="int" >        9 </v>
   <v type="int" >       10 </v>
   <v type="int" >       11 </v>
   <v type="int" >       12 </v>
   <v type="int" >       13 </v>
   <v type="int" >       14 </v>
   <v type="int" >       15 </v>
   <v type="int" >       16 </v>
   <v type="int" >       17 </v>
   <v type="int" >       18 </v>
   <v type="int" >       19 </v>
   <v type="int" >       20 </v>
   <v type="int" >       21 </v>
   <v type="int" >       22 </v>
   <v type="int" >       23 </v>
   <v type="int" >       24 </v>
   <v type="int" >       25 </v>
   <v type="int" >       26 </v>
   <v type="int" >       27 </v>
   <v type="int" >       28 </v>
   <v type="int" >       29 </v>
   <v type="int" >       30 </v>
   <v type="int" >       31 </v>
   <v type="int" >       32 </v>
  </varray>
 </primitive_cell>
 <kpoints>
  <generation param="Monkhorst-Pack">
   <v type="int" name="divisions">       1        1        1 </v>
   <v name="usershift">      0.00000000       0.00000000       0.00000000 </v>
   <v name="genvec1">      1.00000000       0.00000000       0.00000000 </v>
   <v name="genvec2">      0.00000000       1.00000000       0.00000000 </v>
   <v name="genvec3">      0.00000000       0.00000000       1.00000000 </v>
   <v name="shift">      0.00000000       0.00000000       0.00000000 </v>
  </generation>
  <varray name="kpointlist" >
   <v>       0.00000000       0.00000000       0.00000000 </v>
  </varray>
  <varray name="weights" >
   <v>       1.00000000 </v>
  </varray>
 </kpoints>
 <parameters>
  <separator name="general" >
   <i type="string" name="SYSTEM">unknown system</i>
   <i type="logical" name="LCOMPAT"> F  </i>
  </separator>
  <separator name="electronic" >
   <i type="string" name="PREC">accura</i>
   <i name="ENMAX">    400.00000000</i>
   <i name="ENAUG">    544.56500000</i>
   <i name="EDIFF">      0.00010000</i>
   <i type="int" name="IALGO">    38</i>
   <i type="int" name="IWAVPR">    11</i>
   <i type="int" name="NBANDS">   198</i>
   <i type="int" name="NBANDSLOW">    -1</i>
   <i type="int" name="NBANDSHIGH">    -1</i>
   <i name="NELECT">    302.00000000</i>
   <i type="int" name="TURBO">     0</i>
   <i type="int" name="IRESTART">     0</i>
   <i type="int" name="NREBOOT">     0</i>
   <i type="int" name="NMIN">     0</i>
   <i name="EREF">      0.00000000</i>
   <separator name="electronic smearing" >
    <i type="int" name="ISMEAR">     0</i>
    <i name="SIGMA">      0.02000000</i>
    <i name="KSPACING">      0.50000000</i>
    <i type="logical" name="KGAMMA"> T  </i>
    <i type="logical" name="KBLOWUP"> F  </i>
   </separator>
   <separator name="electronic projectors" >
    <i type="logical" name="LREAL"> F  </i>
    <v name="ROPT">      0.00000000      0.00000000</v>
    <i type="int" name="LMAXPAW">  -100</i>
    <i type="int" name="LMAXMIX">     2</i>
    <i type="logical" name="NLSPLINE"> F  </i>
   </separator>
   <separator name="electronic startup" >
    <i type="int" name="ISTART">     0</i>
    <i type="int" name="ICHARG">     2</i>
    <i type="int" name="INIWAV">     1</i>
   </separator>
   <separator name="electronic spin" >
    <i type="int" name="ISPIN">     2</i>
    <i type="logical" name="LNONCOLLINEAR"> F  </i>
    <v name="MAGMOM">      1.00000000      1.00000000      1.00000000      1.00000000      1.00000000      1.00000000      1.00000000      1.00000000      1.00000000      1.00000000      1.00000000      1.00000000      1.00000000      1.00000000      1.00000000      1.00000000      1.00000000      1.00000000      1.00000000      1.00000000
      1.00000000      1.00000000      1.00000000      1.00000000      1.00000000      1.00000000      1.00000000      1.00000000      1.00000000      1.00000000      1.00000000      1.00000000</v>
    <i name="NUPDOWN">     -1.00000000</i>
    <i type="logical" name="LSORBIT"> F  </i>
    <v name="SAXIS">      0.00000000      0.00000000      1.00000000</v>
    <i type="logical" name="LSPIRAL"> F  </i>
    <v name="QSPIRAL">      0.00000000      0.00000000      0.00000000</v>
    <i type="logical" name="LZEROZ"> F  </i>
   </separator>
   <separator name="electronic exchange-correlation" >
    <i type="logical" name="LASPH"> F  </i>
    <i type="logical" name="LMETAGGA"> F  </i>
   </separator>
   <separator name="electronic convergence" >
    <i type="int" name="NELM">   120</i>
    <i type="int" name="NELMDL">    -5</i>
    <i type="int" name="NELMIN">     2</i>
    <i name="ENINI">    400.00000000</i>
    <separator name="electronic convergence detail" >
     <i type="logical" name="LDIAG"> T  </i>
     <i type="logical" name="LSUBROT"> F  </i>
     <i name="WEIMIN">      0.00100000</i>
     <i name="EBREAK">      0.00000013</i>
     <i name="DEPER">      0.30000000</i>
     <i type="int" name="NRMM">     4</i>
     <i name="TIME">      0.40000000</i>
    </separator>
   </separator>
   <separator name="electronic mixer" >
    <i name="AMIX">      0.40000000</i>
    <i name="BMIX">      1.00000000</i>
    <i name="AMIN">      0.10000000</i>
    <i name="AMIX_MAG">      1.60000000</i>
    <i name="BMIX_MAG">      1.00000000</i>
    <separator name="electronic mixer details" >
     <i type="int" name="IMIX">     4</i>
     <i type="logical" name="MIXFIRST"> F  </i>
     <i type="int" name="MAXMIX">   -45</i>
     <i name="WC">    100.00000000</i>
     <i type="int" name="INIMIX">     1</i>
     <i type="int" name="MIXPRE">     1</i>
     <i type="int" name="MREMOVE">     5</i>
    </separator>
   </separator>
   <separator name="electronic dipolcorrection" >
    <i type="logical" name="LDIPOL"> F  </i>
    <i type="logical" name="LMONO"> F  </i>
    <i type="int" name="IDIPOL">     0</i>
    <i name="EPSILON">      1.00000000</i>
    <v name="DIPOL">   -100.00000000   -100.00000000   -100.00000000</v>
    <i name="EFIELD">      0.00000000</i>
   </separator>
  </separator>
  <separator name="grids" >
   <i type="int" name="NGX">   108</i>
   <i type="int" name="NGY">   108</i>
   <i type="int" name="NGZ">   108</i>
   <i type="int" name="NGXF">   216</i>
   <i type="int" name="NGYF">   216</i>
   <i type="int" name="NGZF">   216</i>
   <i type="logical" name="ADDGRID"> F  </i>
  </separator>
  <separator name="ionic" >
   <i type="int" name="NSW">    40</i>
   <i type="int" name="IBRION">     1</i>
   <i type="int" name="MDALGO">     0</i>
   <i type="int" name="ISIF">     2</i>
   <i name="PSTRESS">      0.00000000</i>
   <i name="EDIFFG">     -0.05000000</i>
   <i type="int" name="NFREE">     0</i>
   <i name="POTIM">      0.50000000</i>
   <i name="SMASS">     -3.00000000</i>
   <i name="SCALEE">      1.00000000</i>
  </separator>
  <separator name="ionic md" >
   <i name="TEBEG">      0.00010000</i>
   <i name="TEEND">      0.00010000</i>
   <i type="int" name="NBLOCK">     1</i>
   <i type="int" name="KBLOCK">    40</i>
   <i type="int" name="NPACO">   256</i>
   <i name="APACO">     10.00000000</i>
  </separator>
  <separator name="symmetry" >
   <i type="int" name="ISYM">    -1</i>
   <i name="SYMPREC">      0.00001000</i>
  </separator>
  <separator name="dos" >
   <i type="int" name="LORBIT">     0</i>
   <v name="RWIGS">     -1.00000000     -1.00000000</v>
   <i type="int" name="NEDOS">   301</i>
   <i name="EMIN">     10.00000000</i>
   <i name="EMAX">    -10.00000000</i>
   <i name="EFERMI">      0.00000000</i>
  </separator>
  <separator name="writing" >
   <i type="int" name="NWRITE">     2</i>
   <i type="logical" name="LWAVE"> F  </i>
   <i type="logical" name="LDOWNSAMPLE"> F  </i>
   <i type="logical" name="LCHARG"> F  </i>
   <i type="logical" name="LPARD"> F  </i>
   <i type="logical" name="LVTOT"> F  </i>
   <i type="logical" name="LVHAR"> F  </i>
   <i type="logical" name="LELF"> F  </i>
   <i type="logical" name="LOPTICS"> F  </i>
   <v name="STM">      0.00000000      0.00000000      0.00000000      0.00000000      0.00000000      0.00000000      0.00000000</v>
  </separator>
  <separator name="performance" >
   <i type="int" name="NPAR">     2</i>
   <i type="int" name="NSIM">     4</i>
   <i type="int" name="NBLK">    -1</i>
   <i type="logical" name="LPLANE"> T  </i>
   <i type="logical" name="LSCALAPACK"> T  </i>
   <i type="logical" name="LSCAAWARE"> F  </i>
   <i type="logical" name="LSCALU"> F  </i>
   <i type="logical" name="LASYNC"> F  </i>
   <i type="logical" name="LORBITALREAL"> F  </i>
  </separator>
  <separator name="miscellaneous" >
   <i type="int" name="IDIOT">     3</i>
   <i type="int" name="PHON_NSTRUCT">    -1</i>
   <i type="logical" name="LMUSIC"> F  </i>
   <v name="POMASS">     58.69000000      1.00000000</v>
   <v name="DARWINR">      0.00000000      0.00000000</v>
   <v name="DARWINV">      1.00000000      1.00000000</v>
   <i type="logical" name="LCORR"> T  </i>
  </separator>
  <i type="logical" name="GGA_COMPAT"> T  </i>
  <i type="logical" name="LBERRY"> F  </i>
  <i type="int" name="ICORELEVEL">     0</i>
  <i type="logical" name="LDAU"> F  </i>
  <i type="int" name="I_CONSTRAINED_M">     0</i>
  <separator name="electronic exchange-correlation" >
   <i type="string" name="GGA">PE</i>
   <i type="int" name="VOSKOWN">     0</i>
   <i type="logical" name="LHFCALC"> F  </i>
   <i type="string" name="PRECFOCK"></i>
   <i type="logical" name="LSYMGRAD"> F  </i>
   <i type="logical" name="LHFONE"> F  </i>
   <i type="logical" name="LRHFCALC"> F  </i>
   <i type="logical" name="LTHOMAS"> F  </i>
   <i type="logical" name="LMODELHF"> F  </i>
   <i type="logical" name="LFOCKACE"> F  </i>
   <i name="ENCUT4O">     -1.00000000</i>
   <i type="int" name="EXXOEP">     0</i>
   <i type="int" name="FOURORBIT">     0</i>
   <i name="AEXX">      0.00000000</i>
   <i name="HFALPHA">      0.00000000</i>
   <i name="MCALPHA">      0.00000000</i>
   <i name="ALDAX">      1.00000000</i>
   <i name="AGGAX">      1.00000000</i>
   <i name="ALDAC">      1.00000000</i>
   <i name="AGGAC">      1.00000000</i>
   <i type="int" name="NKREDX">     1</i>
   <i type="int" name="NKREDY">     1</i>
   <i type="int" name="NKREDZ">     1</i>
   <i type="logical" name="SHIFTRED"> F  </i>
   <i type="logical" name="ODDONLY"> F  </i>
   <i type="logical" name="EVENONLY"> F  </i>
   <i type="int" name="LMAXFOCK">     0</i>
   <i type="int" name="NMAXFOCKAE">     0</i>
   <i type="logical" name="LFOCKAEDFT"> F  </i>
   <i name="HFSCREEN">      0.00000000</i>
   <i name="HFSCREENC">      0.00000000</i>
   <i type="int" name="NBANDSGWLOW">     0</i>
  </separator>
  <separator name="vdW DFT" >
   <i type="logical" name="LUSE_VDW"> F  </i>
   <i name="Zab_VDW">     -0.84910000</i>
   <i name="PARAM1">      0.12340000</i>
   <i name="PARAM2">      1.00000000</i>
   <i name="PARAM3">      0.00000000</i>
  </separator>
  <separator name="model GW" >
   <i type="int" name="MODEL_GW">     0</i>
   <i name="MODEL_EPS0">     76.80000000</i>
   <i name="MODEL_ALPHA">      1.00000000</i>
  </separator>
  <separator name="linear response parameters" >
   <i type="logical" name="LEPSILON"> F  </i>
   <i type="logical" name="LRPA"> F  </i>
   <i type="logical" name="LNABLA"> F  </i>
   <i type="logical" name="LVEL"> F  </i>
   <i name="CSHIFT">      0.10000000</i>
   <i name="OMEGAMAX">     -1.00000000</i>
   <i name="DEG_THRESHOLD">      0.00200000</i>
   <i name="RTIME">     -0.10000000</i>
   <i name="WPLASMAI">      0.00000000</i>
   <v name="DFIELD">      0.00000000      0.00000000      0.00000000</v>
   <v name="WPLASMA">      0.00000000      0.00000000      0.00000000      0.00000000      0.00000000      0.00000000      0.00000000      0.00000000      0.00000000</v>
  </separator>
  <separator name="orbital magnetization" >
   <i type="logical" name="NUCIND"> F  </i>
   <v name="MAGPOS">      0.00000000      0.00000000      0.00000000</v>
   <i type="logical" name="LNICSALL"> T  </i>
   <i type="logical" name="ORBITALMAG"> F  </i>
   <i type="logical" name="LMAGBLOCH"> F  </i>
   <i type="logical" name="LCHIMAG"> F  </i>
   <i type="logical" name="LGAUGE"> T  </i>
   <i type="int" name="MAGATOM">     0</i>
   <v name="MAGDIPOL">      0.00000000      0.00000000      0.00000000</v>
   <v name="AVECCONST">      0.00000000      0.00000000      0.00000000</v>
  </separator>
  <separator name="response functions" >
   <i type="logical" name="LFINITE_TEMPERATURE"> F  </i>
   <i type="logical" name="LADDER"> F  </i>
   <i type="logical" name="LRPAFORCE"> F  </i>
   <i type="logical" name="LFXC"> F  </i>
   <i type="logical" name="LHARTREE"> T  </i>
   <i type="int" name="IBSE">     0</i>
   <v type="int" name="KPOINT">    -1     0     0     0</v>
   <i type="logical" name="LTCTC"> F  </i>
   <i type="logical" name="LTCTE"> F  </i>
   <i type="logical" name="LTETE"> F  </i>
   <i type="logical" name="LTRIPLET"> F  </i>
   <i type="logical" name="LFXCEPS"> F  </i>
   <i type="logical" name="LFXHEG"> F  </i>
   <i type="int" name="NATURALO">     2</i>
   <i type="logical" name="LHOLEGF"> F  </i>
   <i type="logical" name="L2ORDER"> F  </i>
   <i type="logical" name="LDMP1"> F  </i>
   <i type="logical" name="LMP2LT"> F  </i>
   <i type="logical" name="LSMP2LT"> F  </i>
   <i type="logical" name="LGWLF"> F  </i>
   <i name="ENCUTGW">     -2.00000000</i>
   <i name="ENCUTGWSOFT">     -2.00000000</i>
   <i name="ENCUTLF">     -1.00000000</i>
   <i type="logical" name="LESF_SPLINES"> F  </i>
   <i type="int" name="LMAXMP2">    -1</i>
   <i name="SCISSOR">      0.00000000</i>
   <i type="int" name="NOMEGA">     0</i>
   <i type="int" name="NOMEGAR">     0</i>
   <i type="int" name="NBANDSGW">    -1</i>
   <i type="int" name="NBANDSO">    -1</i>
   <i type="int" name="NBANDSV">    -1</i>
   <i type="int" name="NELMGW">     1</i>
   <i type="int" name="NELMHF">     1</i>
   <i type="int" name="DIM">     3</i>
   <i type="int" name="IESPILON">     4</i>
   <i type="int" name="ANTIRES">     0</i>
   <i name="OMEGAMAX">    -30.00000000</i>
   <i name="OMEGAMIN">    -30.00000000</i>
   <i name="OMEGATL">   -200.00000000</i>
   <i type="int" name="OMEGAGRID">     0</i>
   <i name="CSHIFT">     -0.10000000</i>
   <i type="logical" name="LSELFENERGY"> F  </i>
   <i type="logical" name="LSPECTRAL"> F  </i>
   <i type="logical" name="LSPECTRALGW"> F  </i>
   <i type="logical" name="LSINGLES"> F  </i>
   <i type="logical" name="LFERMIGW"> F  </i>
   <i type="logical" name="ODDONLYGW"> F  </i>
   <i type="logical" name="EVENONLYGW"> F  </i>
   <i type="int" name="NKREDLFX">     1</i>
   <i type="int" name="NKREDLFY">     1</i>
   <i type="int" name="NKREDLFZ">     1</i>
   <i type="int" name="MAXMEM">  2800</i>
   <i type="int" name="TELESCOPE">     0</i>
   <i type="int" name="NTAUPAR">    -1</i>
   <i type="int" name="NOMEGAPAR">    -1</i>
   <i name="DAMP_NEWTON">      0.80000001</i>
   <i name="LAMBDA">      1.00000000</i>
  </separator>
  <separator name="External order field" >
   <i name="OFIELD_KAPPA">      0.00000000</i>
   <v name="OFIELD_K">      0.00000000      0.00000000      0.00000000</v>
   <i name="OFIELD_Q6_NEAR">      0.00000000</i>
   <i name="OFIELD_Q6_FAR">      0.00000000</i>
   <i name="OFIELD_A">      0.00000000</i>
  </separator>
  <separator name="optional k-points parameters" >
   <i type="int" name="KPOINTS_OPT_MODE">     1</i>
   <i type="logical" name="LKPOINTS_OPT"> F  </i>
  </separator>
 </parameters>
 <atominfo>
  <atoms>      32 </atoms>
  <types>       2 </types>
  <array name="atoms" >
   <dimension dim="1">ion</dimension>
   <field type="string">element</field>
   <field type="int">atomtype</field>
   <set>
    <rc><c>Ni</c><c>   1</c></rc>
    <rc><c>Ni</c><c>   1</c></rc>
    <rc><c>Ni</c><c>   1</c></rc>
    <rc><c>Ni</c><c>   1</c></rc>
    <rc><c>Ni</c><c>   1</c></rc>
    <rc><c>Ni</c><c>   1</c></rc>
    <rc><c>Ni</c><c>   1</c></rc>
    <rc><c>Ni</c><c>   1</c></rc>
    <rc><c>Ni</c><c>   1</c></rc>
    <rc><c>Ni</c><c>   1</c></rc>
    <rc><c>Ni</c><c>   1</c></rc>
    <rc><c>Ni</c><c>   1</c></rc>
    <rc><c>Ni</c><c>   1</c></rc>
    <rc><c>Ni</c><c>   1</c></rc>
    <rc><c>Ni</c><c>   1</c></rc>
    <rc><c>Ni</c><c>   1</c></rc>
    <rc><c>Ni</c><c>   1</c></rc>
    <rc><c>Ni</c><c>   1</c></rc>
    <rc><c>Ni</c><c>   1</c></rc>
    <rc><c>Ni</c><c>   1</c></rc>
    <rc><c>Ni</c><c>   1</c></rc>
    <rc><c>Ni</c><c>   1</c></rc>
    <rc><c>Ni</c><c>   1</c></rc>
    <rc><c>Ni</c><c>   1</c></rc>
    <rc><c>Ni</c><c>   1</c></rc>
    <rc><c>Ni</c><c>   1</c></rc>
    <rc><c>Ni</c><c>   1</c></rc>
    <rc><c>Ni</c><c>   1</c></rc>
    <rc><c>Ni</c><c>   1</c></rc>
    <rc><c>Ni</c><c>   1</c></rc>
    <rc><c>H </c><c>   2</c></rc>
    <rc><c>H </c><c>   2</c></rc>
   </set>
  </array>
  <array name="atomtypes" >
   <dimension dim="1">type</dimension>
   <field type="int">atomspertype</field>
   <field type="string">element</field>
   <field>mass</field>
   <field>valence</field>
   <field type="string">pseudopotential</field>
   <set>
    <rc><c>  30</c><c>Ni</c><c>     58.69000000</c><c>     10.00000000</c><c>  PAW_PBE Ni 02Aug2007                  </c></rc>
    <rc><c>   2</c><c>H </c><c>      1.00000000</c><c>      1.00000000</c><c>  PAW_PBE H 15Jun2001                   </c></rc>
   </set>
  </array>
 </atominfo>
 <structure name="initialpos" >
  <crystal>
   <varray name="basis" >
    <v>      16.00000000       0.00000000       0.00000000 </v>
    <v>       0.00000000      16.00000000       0.00000000 </v>
    <v>       0.00000000       0.00000000      16.00000000 </v>
   </varray>
   <i name="volume">   4096.00000000 </i>
   <varray name="rec_basis" >
    <v>       0.06250000       0.00000000       0.00000000 </v>
    <v>       0.00000000       0.06250000       0.00000000 </v>
    <v>       0.00000000       0.00000000       0.06250000 </v>
   </varray>
  </crystal>
  <varray name="positions" >
   <v>       0.24204812       0.46574375       0.39358062 </v>
   <v>       0.47664750       0.46996062       0.67724500 </v>
   <v>       0.56549250       0.67648500       0.38362437 </v>
   <v>       0.57311312       0.26554500       0.38499375 </v>
   <v>       0.33768562       0.46766813       0.62356500 </v>
   <v>       0.65978875       0.62061375       0.49154062 </v>
   <v>       0.66524938       0.32527375       0.49257937 </v>
   <v>       0.32675000       0.57369062       0.34481625 </v>
   <v>       0.33114375       0.36122812       0.34507188 </v>
   <v>       0.40257313       0.46809063       0.25190625 </v>
   <v>       0.53750625       0.26414000       0.53140812 </v>
   <v>       0.53031438       0.67711438       0.53047625 </v>
   <v>       0.65811125       0.54895063       0.35866813 </v>
   <v>       0.65967312       0.39560375       0.35880750 </v>
   <v>       0.42268937       0.59525687       0.59476000 </v>
   <v>       0.42683313       0.34299625       0.59471812 </v>
   <v>       0.46809750       0.59455000       0.30764875 </v>
   <v>       0.47352250       0.34516125       0.30878812 </v>
   <v>       0.42711875       0.30087688       0.44386313 </v>
   <v>       0.42129875       0.63628937       0.44334312 </v>
   <v>       0.31992125       0.54301125       0.49424562 </v>
   <v>       0.32328812       0.39197125       0.49426000 </v>
   <v>       0.54435625       0.47145750       0.30680125 </v>
   <v>       0.57267187       0.54664000       0.59011250 </v>
   <v>       0.57482875       0.39594625       0.59044750 </v>
   <v>       0.66008312       0.47271500       0.48947438 </v>
   <v>       0.45226000       0.46980438       0.53473625 </v>
   <v>       0.53660750       0.54776313       0.44005500 </v>
   <v>       0.53881625       0.39369375       0.44078812 </v>
   <v>       0.41230875       0.46914563       0.39380312 </v>
   <v>       0.48638649       0.74459986       0.75035727 </v>
   <v>       0.49947518       0.77601271       0.78177012 </v>
  </varray>
 </structure>
 <calculation>
  <scstep>
   <time name="dav">    3.78    3.79</time>
   <time name="total">    4.24    4.26</time>
   <energy>
    <i name="alphaZ">    113.16553179 </i>
    <i name="ewald">  55957.04881956 </i>
    <i name="hartreedc"> -85794.26217929 </i>
    <i name="XCdc">    936.27076537 </i>
    <i name="pawpsdc">  28888.58386782 </i>
    <i name="pawaedc"> -30893.72677109 </i>
    <i name="eentropy">     -0.00431126 </i>
    <i name="bandstr">    -52.13141908 </i>
    <i name="atom">  32354.87237921 </i>
    <i name="e_fr_energy">   1509.81668303 </i>
    <i name="e_wo_entrp">   1509.82099429 </i>
    <i name="e_0_energy">   1509.81883866 </i>
   </energy>
  </scstep>
  <scstep>
   <time name="dav">    3.90    3.92</time>
   <time name="total">    3.90    3.92</time>
   <energy>
    <i name="e_fr_energy">    -64.21657631 </i>
    <i name="e_wo_entrp">    -64.20014180 </i>
    <i name="e_0_energy">    -64.20835905 </i>
   </energy>
  </scstep>
  <scstep>
   <time name="dav">    3.96    3.98</time>
   <time name="total">    3.96    3.98</time>
   <energy>
    <i name="e_fr_energy">   -147.62108234 </i>
    <i name="e_wo_entrp">   -147.60558221 </i>
    <i name="e_0_energy">   -147.61333228 </i>
   </energy>
  </scstep>
  <scstep>
   <time name="dav">    3.99    4.01</time>
   <time name="total">    3.99    4.01</time>
   <energy>
    <i name="e_fr_energy">   -149.59422225 </i>
    <i name="e_wo_entrp">   -149.57934527 </i>
    <i name="e_0_energy">   -149.58678376 </i>
   </energy>
  </scstep>
  <scstep>
   <time name="dav">    4.34    4.36</time>
   <time name="total">    4.53    4.57</time>
   <energy>
    <i name="e_fr_energy">   -149.63967394 </i>
    <i name="e_wo_entrp">   -149.62479270 </i>
    <i name="e_0_energy">   -149.63223332 </i>
   </energy>
  </scstep>
  <scstep>
   <time name="dav">    5.32    5.33</time>
   <time name="total">    5.96    5.98</time>
   <energy>
    <i name="e_fr_energy"> -17352.86685439 </i>
    <i name="e_wo_entrp"> -17352.85759662 </i>
    <i name="e_0_energy"> -17352.86222550 </i>
   </energy>
  </scstep>
  <scstep>
   <time name="dav">    3.91    3.92</time>
   <time name="total">    4.54    4.56</time>
   <energy>
    <i name="e_fr_energy">   -105.88882696 </i>
    <i name="e_wo_entrp">   -105.87837866 </i>
    <i name="e_0_energy">   -105.88360281 </i>
   </energy>
  </scstep>
  <scstep>
   <time name="dav">    4.29    4.30</time>
   <time name="total">    4.92    4.94</time>
   <energy>
    <i name="e_fr_energy">   -128.95857012 </i>
    <i name="e_wo_entrp">   -128.94656006 </i>
    <i name="e_0_energy">   -128.95256509 </i>
   </energy>
  </scstep>
  <scstep>
   <time name="dav">    4.04    4.05</time>
   <time name="total">    4.67    4.69</time>
   <energy>
    <i name="e_fr_energy">   -135.90827059 </i>
    <i name="e_wo_entrp">   -135.89586468 </i>
    <i name="e_0_energy">   -135.90206764 </i>
   </energy>
  </scstep>
  <scstep>
   <time name="dav">    4.11    4.12</time>
   <time name="total">    4.75    4.77</time>
   <energy>
    <i name="e_fr_energy">   -142.20296717 </i>
    <i name="e_wo_entrp">   -142.19330145 </i>
    <i name="e_0_energy">   -142.19813431 </i>
   </energy>
  </scstep>
  <scstep>
   <time name="dav">    3.99    4.00</time>
   <time name="total">    4.62    4.64</time>
   <energy>
    <i name="e_fr_energy">   -137.77725846 </i>
    <i name="e_wo_entrp">   -137.76708474 </i>
    <i name="e_0_energy">   -137.77217160 </i>
   </energy>
  </scstep>
  <scstep>
   <time name="dav">    4.00    4.01</time>
   <time name="total">    4.63    4.65</time>
   <energy>
    <i name="e_fr_energy">   -131.51510549 </i>
    <i name="e_wo_entrp">   -131.50120420 </i>
    <i name="e_0_energy">   -131.50815485 </i>
   </energy>
  </scstep>
  <scstep>
   <time name="dav">    4.10    4.11</time>
   <time name="total">    4.73    4.75</time>
   <energy>
    <i name="e_fr_energy">   -131.07669110 </i>
    <i name="e_wo_entrp">   -131.06324562 </i>
    <i name="e_0_energy">   -131.06996836 </i>
   </energy>
  </scstep>
  <scstep>
   <time name="dav">    4.14    4.15</time>
   <time name="total">    4.77    4.79</time>
   <energy>
    <i name="e_fr_energy">   -130.79361159 </i>
    <i name="e_wo_entrp">   -130.78064197 </i>
    <i name="e_0_energy">   -130.78712678 </i>
   </energy>
  </scstep>
  <scstep>
   <time name="dav">    3.92    3.93</time>
   <time name="total">    4.56    4.58</time>
   <energy>
    <i name="e_fr_energy">   -130.24419256 </i>
    <i name="e_wo_entrp">   -130.23006440 </i>
    <i name="e_0_energy">   -130.23712848 </i>
   </energy>
  </scstep>
  <scstep>
   <time name="dav">    4.05    4.06</time>
   <time name="total">    4.68    4.71</time>
   <energy>
    <i name="e_fr_energy">   -129.98564129 </i>
    <i name="e_wo_entrp">   -129.97330858 </i>
    <i name="e_0_energy">   -129.97947493 </i>
   </energy>
  </scstep>
  <scstep>
   <time name="dav">    4.08    4.09</time>
   <time name="total">    4.72    4.74</time>
   <energy>
    <i name="e_fr_energy">   -130.08874999 </i>
    <i name="e_wo_entrp">   -130.07962183 </i>
    <i name="e_0_energy">   -130.08418591 </i>
   </energy>
  </scstep>
  <scstep>
   <time name="dav">    3.99    4.00</time>
   <time name="total">    4.63    4.65</time>
   <energy>
    <i name="e_fr_energy">   -130.08463295 </i>
    <i name="e_wo_entrp">   -130.07665462 </i>
    <i name="e_0_energy">   -130.08064379 </i>
   </energy>
  </scstep>
  <scstep>
   <time name="dav">    4.03    4.04</time>
   <time name="total">    4.74    4.76</time>
   <energy>
    <i name="e_fr_energy">   -130.32101742 </i>
    <i name="e_wo_entrp">   -130.31206453 </i>
    <i name="e_0_energy">   -130.31654097 </i>
   </energy>
  </scstep>
  <scstep>
   <time name="dav">    4.00    4.01</time>
   <time name="total">    4.64    4.66</time>
   <energy>
    <i name="e_fr_energy">   -130.61912367 </i>
    <i name="e_wo_entrp">   -130.61189117 </i>
    <i name="e_0_energy">   -130.61550742 </i>
   </energy>
  </scstep>
  <scstep>
   <time name="dav">    3.95    3.96</time>
   <time name="total">    4.59    4.61</time>
   <energy>
    <i name="e_fr_energy">   -130.75253103 </i>
    <i name="e_wo_entrp">   -130.74224755 </i>
    <i name="e_0_energy">   -130.74738929 </i>
   </energy>
  </scstep>
  <scstep>
   <time name="dav">    4.05    4.07</time>
   <time name="total">    4.69    4.72</time>
   <energy>
    <i name="e_fr_energy">   -131.21138530 </i>
    <i name="e_wo_entrp">   -131.20440788 </i>
    <i name="e_0_energy">   -131.20789659 </i>
   </energy>
  </scstep>
  <scstep>
   <time name="dav">    3.85    3.86</time>
   <time name="total">    4.49    4.51</time>
   <energy>
    <i name="e_fr_energy">   -131.72563410 </i>
    <i name="e_wo_entrp">   -131.71735111 </i>
    <i name="e_0_energy">   -131.72149261 </i>
   </energy>
  </scstep>
  <scstep>
   <time name="dav">    3.95    3.96</time>
   <time name="total">    4.59    4.61</time>
   <energy>
    <i name="e_fr_energy">   -131.95849986 </i>
    <i name="e_wo_entrp">   -131.94907299 </i>
    <i name="e_0_energy">   -131.95378642 </i>
   </energy>
  </scstep>
  <scstep>
   <time name="dav">    3.89    3.90</time>
   <time name="total">    4.53    4.55</time>
   <energy>
    <i name="e_fr_energy">   -132.45750335 </i>
    <i name="e_wo_entrp">   -132.44953590 </i>
    <i name="e_0_energy">   -132.45351963 </i>
   </energy>
  </scstep>
  <scstep>
   <time name="dav">    3.89    3.90</time>
   <time name="total">    4.54    4.56</time>
   <energy>
    <i name="e_fr_energy">   -132.89062018 </i>
    <i name="e_wo_entrp">   -132.88369573 </i>
    <i name="e_0_energy">   -132.88715796 </i>
   </energy>
  </scstep>
  <scstep>
   <time name="dav">    3.96    3.97</time>
   <time name="total">    4.60    4.63</time>
   <energy>
    <i name="e_fr_energy">   -133.10792475 </i>
    <i name="e_wo_entrp">   -133.10081327 </i>
    <i name="e_0_energy">   -133.10436901 </i>
   </energy>
  </scstep>
  <scstep>
   <time name="dav">    3.85    3.86</time>
   <time name="total">    4.49    4.51</time>
   <energy>
    <i name="e_fr_energy">   -133.57651516 </i>
    <i name="e_wo_entrp">   -133.57083795 </i>
    <i name="e_0_energy">   -133.57367656 </i>
   </energy>
  </scstep>
  <scstep>
   <time name="dav">    3.98    3.99</time>
   <time name="total">    4.63    4.65</time>
   <energy>
    <i name="e_fr_energy">   -133.67917374 </i>
    <i name="e_wo_entrp">   -133.67354253 </i>
    <i name="e_0_energy">   -133.67635813 </i>
   </energy>
  </scstep>
  <scstep>
   <time name="dav">    3.87    3.88</time>
   <time name="total">    4.52    4.54</time>
   <energy>
    <i name="e_fr_energy">   -134.00253028 </i>
    <i name="e_wo_entrp">   -133.99620012 </i>
    <i name="e_0_energy">   -133.99936520 </i>
   </energy>
  </scstep>
  <scstep>
   <time name="dav">    3.91    3.92</time>
   <time name="total">    4.55    4.58</time>
   <energy>
    <i name="e_fr_energy">   -134.25956087 </i>
    <i name="e_wo_entrp">   -134.25416532 </i>
    <i name="e_0_energy">   -134.25686309 </i>
   </energy>
  </scstep>
  <scstep>
   <time name="dav">    4.08    4.09</time>
   <time name="total">    4.78    4.80</time>
   <energy>
    <i name="e_fr_energy">   -134.50546171 </i>
    <i name="e_wo_entrp">   -134.49829757 </i>
    <i name="e_0_energy">   -134.50187964 </i>
   </energy>
  </scstep>
  <scstep>
   <time name="dav">    3.83    3.84</time>
   <time name="total">    4.47    4.50</time>
   <energy>
    <i name="e_fr_energy">   -134.76001179 </i>
    <i name="e_wo_entrp">   -134.75443613 </i>
    <i name="e_0_energy">   -134.75722396 </i>
   </energy>
  </scstep>
  <scstep>
   <time name="dav">    4.04    4.05</time>
   <time name="total">    4.70    4.71</time>
   <energy>
    <i name="e_fr_energy">   -134.84965861 </i>
    <i name="e_wo_entrp">   -134.84369083 </i>
    <i name="e_0_energy">   -134.84667472 </i>
   </energy>
  </scstep>
  <scstep>
   <time name="dav">    3.81    3.82</time>
   <time name="total">    4.46    4.47</time>
   <energy>
    <i name="e_fr_energy">   -134.99802871 </i>
    <i name="e_wo_entrp">   -134.99236001 </i>
    <i name="e_0_energy">   -134.99519436 </i>
   </energy>
  </scstep>
  <scstep>
   <time name="dav">    4.10    4.11</time>
   <time name="total">    4.75    4.77</time>
   <energy>
    <i name="e_fr_energy">   -135.06014808 </i>
    <i name="e_wo_entrp">   -135.05465517 </i>
    <i name="e_0_energy">   -135.05740162 </i>
   </energy>
  </scstep>
  <scstep>
   <time name="dav">    4.37    4.38</time>
   <time name="total">    5.02    5.04</time>
   <energy>
    <i name="e_fr_energy">   -135.17889765 </i>
    <i name="e_wo_entrp">   -135.17362518 </i>
    <i name="e_0_energy">   -135.17626141 </i>
   </energy>
  </scstep>
  <scstep>
   <time name="dav">    4.14    4.15</time>
   <time name="total">    4.79    4.81</time>
   <energy>
    <i name="e_fr_energy">   -135.19534390 </i>
    <i name="e_wo_entrp">   -135.18986252 </i>
    <i name="e_0_energy">   -135.19260321 </i>
   </energy>
  </scstep>
  <scstep>
   <time name="dav">    4.36    4.37</time>
   <time name="total">    5.01    5.04</time>
   <energy>
    <i name="e_fr_energy">   -135.21708779 </i>
    <i name="e_wo_entrp">   -135.21178472 </i>
    <i name="e_0_energy">   -135.21443625 </i>
   </energy>
  </scstep>
  <scstep>
   <time name="dav">    4.11    4.12</time>
   <time name="total">    4.77    4.78</time>
   <energy>
    <i name="e_fr_energy">   -135.22128474 </i>
    <i name="e_wo_entrp">   -135.21604959 </i>
    <i name="e_0_energy">   -135.21866717 </i>
   </energy>
  </scstep>
  <scstep>
   <time name="dav">    4.01    4.02</time>
   <time name="total">    4.67    4.68</time>
   <energy>
    <i name="e_fr_energy">   -135.22772373 </i>
    <i name="e_wo_entrp">   -135.22251447 </i>
    <i name="e_0_energy">   -135.22511910 </i>
   </energy>
  </scstep>
  <scstep>
   <time name="dav">    3.90    3.91</time>
   <time name="total">    4.56    4.58</time>
   <energy>
    <i name="e_fr_energy">   -135.23120072 </i>
    <i name="e_wo_entrp">   -135.22603134 </i>
    <i name="e_0_energy">   -135.22861603 </i>
   </energy>
  </scstep>
  <scstep>
   <time name="dav">    3.41    3.42</time>
   <time name="total">    4.07    4.08</time>
   <energy>
    <i name="e_fr_energy">   -135.23368779 </i>
    <i name="e_wo_entrp">   -135.22854020 </i>
    <i name="e_0_energy">   -135.23111400 </i>
   </energy>
  </scstep>
  <scstep>
   <time name="dav">    3.52    3.53</time>
   <time name="total">    4.21    4.23</time>
   <energy>
    <i name="e_fr_energy">   -135.23651061 </i>
    <i name="e_wo_entrp">   -135.23130437 </i>
    <i name="e_0_energy">   -135.23390749 </i>
   </energy>
  </scstep>
  <scstep>
   <time name="dav">    3.03    3.04</time>
   <time name="total">    3.70    3.73</time>
   <energy>
    <i name="e_fr_energy">   -135.23743605 </i>
    <i name="e_wo_entrp">   -135.23230781 </i>
    <i name="e_0_energy">   -135.23487193 </i>
   </energy>
  </scstep>
  <scstep>
   <time name="dav">    3.14    3.15</time>
   <time name="total">    3.82    3.84</time>
   <energy>
    <i name="e_fr_energy">   -135.23865952 </i>
    <i name="e_wo_entrp">   -135.23344060 </i>
    <i name="e_0_energy">   -135.23605006 </i>
   </energy>
  </scstep>
  <scstep>
   <time name="dav">    2.98    2.99</time>
   <time name="total">    3.65    3.66</time>
   <energy>
    <i name="e_fr_energy">   -135.23913632 </i>
    <i name="e_wo_entrp">   -135.23395821 </i>
    <i name="e_0_energy">   -135.23654726 </i>
   </energy>
  </scstep>
  <scstep>
   <time name="dav">    2.82    2.82</time>
   <time name="total">    3.49    3.51</time>
   <energy>
    <i name="e_fr_energy">   -135.24019111 </i>
    <i name="e_wo_entrp">   -135.23499200 </i>
    <i name="e_0_energy">   -135.23759155 </i>
   </energy>
  </scstep>
  <scstep>
   <time name="dav">    2.86    2.87</time>
   <time name="total">    3.53    3.56</time>
   <energy>
    <i name="e_fr_energy">   -135.24046522 </i>
    <i name="e_wo_entrp">   -135.23525840 </i>
    <i name="e_0_energy">   -135.23786181 </i>
   </energy>
  </scstep>
  <scstep>
   <time name="dav">    2.74    2.75</time>
   <time name="total">    3.41    3.43</time>
   <energy>
    <i name="e_fr_energy">   -135.24092571 </i>
    <i name="e_wo_entrp">   -135.23572171 </i>
    <i name="e_0_energy">   -135.23832371 </i>
   </energy>
  </scstep>
  <scstep>
   <time name="dav">    3.07    3.08</time>
   <time name="total">    3.73    3.75</time>
   <energy>
    <i name="e_fr_energy">   -135.24038029 </i>
    <i name="e_wo_entrp">   -135.23516027 </i>
    <i name="e_0_energy">   -135.23777028 </i>
   </energy>
  </scstep>
  <scstep>
   <time name="dav">    2.79    2.79</time>
   <time name="total">    3.46    3.48</time>
   <energy>
    <i name="e_fr_energy">   -135.24123501 </i>
    <i name="e_wo_entrp">   -135.23602802 </i>
    <i name="e_0_energy">   -135.23863151 </i>
   </energy>
  </scstep>
  <scstep>
   <time name="dav">    2.89    2.90</time>
   <time name="total">    3.56    3.58</time>
   <energy>
    <i name="e_fr_energy">   -135.24150036 </i>
    <i name="e_wo_entrp">   -135.23630865 </i>
    <i name="e_0_energy">   -135.23890451 </i>
   </energy>
  </scstep>
  <scstep>
   <time name="dav">    2.69    2.70</time>
   <time name="total">    3.37    3.39</time>
   <energy>
    <i name="e_fr_energy">   -135.24175157 </i>
    <i name="e_wo_entrp">   -135.23654840 </i>
    <i name="e_0_energy">   -135.23914999 </i>
   </energy>
  </scstep>
  <scstep>
   <time name="dav">    2.76    2.77</time>
   <time name="total">    3.43    3.45</time>
   <energy>
    <i name="e_fr_energy">   -135.24185280 </i>
    <i name="e_wo_entrp">   -135.23665259 </i>
    <i name="e_0_energy">   -135.23925270 </i>
   </energy>
  </scstep>
  <scstep>
   <time name="dav">    2.72    2.72</time>
   <time name="total">    3.16    3.18</time>
   <energy>
    <i name="alphaZ">    113.16553179 </i>
    <i name="ewald">  55957.04881956 </i>
    <i name="hartreedc"> -85894.96871662 </i>
    <i name="XCdc">    915.76565259 </i>
    <i name="pawpsdc">  33155.12098363 </i>
    <i name="pawaedc"> -35201.99020057 </i>
    <i name="eentropy">     -0.00520384 </i>
    <i name="bandstr">  -1534.25119704 </i>
    <i name="atom">  32354.87237921 </i>
    <i name="e_fr_energy">   -135.24195129 </i>
    <i name="e_wo_entrp">   -135.23674745 </i>
    <i name="e_0_energy">   -135.23934937 </i>
   </energy>
  </scstep>
  <structure>
   <crystal>
    <varray name="basis" >
     <v>      16.00000000       0.00000000       0.00000000 </v>
     <v>       0.00000000      16.00000000       0.00000000 </v>
     <v>       0.00000000       0.00000000      16.00000000 </v>
    </varray>
    <i name="volume">   4096.00000000 </i>
    <varray name="rec_basis" >
     <v>       0.06250000       0.00000000       0.00000000 </v>
     <v>       0.00000000       0.06250000       0.00000000 </v>
     <v>       0.00000000       0.00000000       0.06250000 </v>
    </varray>
   </crystal>
   <varray name="positions" >
    <v>       0.24204812       0.46574375       0.39358062 </v>
    <v>       0.47664750       0.46996062       0.67724500 </v>
    <v>       0.56549250       0.67648500       0.38362437 </v>
    <v>       0.57311312       0.26554500       0.38499375 </v>
    <v>       0.33768562       0.46766813       0.62356500 </v>
    <v>       0.65978875       0.62061375       0.49154062 </v>
    <v>       0.66524938       0.32527375       0.49257937 </v>
    <v>       0.32675000       0.57369062       0.34481625 </v>
    <v>       0.33114375       0.36122812       0.34507188 </v>
    <v>       0.40257313       0.46809063       0.25190625 </v>
    <v>       0.53750625       0.26414000       0.53140812 </v>
    <v>       0.53031438       0.67711438       0.53047625 </v>
    <v>       0.65811125       0.54895063       0.35866813 </v>
    <v>       0.65967312       0.39560375       0.35880750 </v>
    <v>       0.42268937       0.59525687       0.59476000 </v>
    <v>       0.42683313       0.34299625       0.59471812 </v>
    <v>       0.46809750       0.59455000       0.30764875 </v>
    <v>       0.47352250       0.34516125       0.30878812 </v>
    <v>       0.42711875       0.30087688       0.44386313 </v>
    <v>       0.42129875       0.63628937       0.44334312 </v>
    <v>       0.31992125       0.54301125       0.49424562 </v>
    <v>       0.32328812       0.39197125       0.49426000 </v>
    <v>       0.54435625       0.47145750       0.30680125 </v>
    <v>       0.57267187       0.54664000       0.59011250 </v>
    <v>       0.57482875       0.39594625       0.59044750 </v>
    <v>       0.66008312       0.47271500       0.48947438 </v>
    <v>       0.45226000       0.46980438       0.53473625 </v>
    <v>       0.53660750       0.54776313       0.44005500 </v>
    <v>       0.53881625       0.39369375       0.44078812 </v>
    <v>       0.41230875       0.46914563       0.39380312 </v>
    <v>       0.48638649       0.74459986       0.75035727 </v>
    <v>       0.49947518       0.77601271       0.78177012 </v>
   </varray>
  </structure>
  <varray name="forces" >
   <v>       0.08353614      -0.00099317       0.01843340 </v>
   <v>      -0.00015310       0.00574148      -0.05115390 </v>
   <v>      -0.01609249      -0.02192965       0.01833927 </v>
   <v>      -0.04777430       0.03025698       0.01331373 </v>
   <v>       0.03869788       0.00760906      -0.01916909 </v>
   <v>      -0.04933781      -0.03738227      -0.01019932 </v>
   <v>      -0.08618607       0.02176052      -0.02981658 </v>
   <v>       0.05355306      -0.04730313       0.02092502 </v>
   <v>       0.04361096       0.02448896       0.02276393 </v>
   <v>      -0.01144993       0.00544473       0.04937218 </v>
   <v>       0.00999668       0.04275638      -0.01339170 </v>
   <v>       0.01265978      -0.03635681      -0.00629419 </v>
   <v>      -0.05180366      -0.02018833       0.01855644 </v>
   <v>      -0.05073580       0.04085896       0.02031749 </v>
   <v>       0.01029942      -0.01798642      -0.02606133 </v>
   <v>       0.02977871       0.03472556      -0.02672135 </v>
   <v>      -0.00815238      -0.01682606       0.01377208 </v>
   <v>      -0.00268143       0.00889052       0.01323747 </v>
   <v>       0.03666759       0.04376779       0.01714557 </v>
   <v>       0.04728519      -0.04889879       0.02177108 </v>
   <v>       0.03290038      -0.03495573      -0.02159438 </v>
   <v>       0.00751646       0.01322483      -0.03491350 </v>
   <v>      -0.01365541      -0.00243548       0.00010010 </v>
   <v>      -0.06150108      -0.02111941      -0.03927372 </v>
   <v>      -0.03612291       0.04519093      -0.04074163 </v>
   <v>      -0.04909325       0.00217421       0.00766305 </v>
   <v>       0.01338142      -0.00620882       0.03206943 </v>
   <v>       0.01926768      -0.03989278       0.04329991 </v>
   <v>       0.01902974       0.02394425       0.02035497 </v>
   <v>       0.02413844       0.00702644      -0.02424597 </v>
   <v>      -0.09911617      -0.26874807      -0.26847286 </v>
   <v>       0.10153626       0.26336332       0.26061440 </v>
  </varray>
  <varray name="stress" >
   <v>      -1.30208438       0.08576302       0.00652435 </v>
   <v>       0.08576301      -1.07405217       0.08815122 </v>
   <v>       0.00652438       0.08815123      -0.91857297 </v>
  </varray>
  <energy>
   <i name="e_fr_energy">   -135.24195129 </i>
   <i name="e_wo_entrp">   -135.23674745 </i>
   <i name="e_0_energy">   -135.23934937 </i>
  </energy>
  <time name="totalsc">  250.23  251.40</time>
 </calculation>
 <calculation>
  <scstep>
   <time name="dav">    3.92    3.93</time>
   <time name="total">    4.56    4.57</time>
   <energy>
    <i name="alphaZ">    113.16553179 </i>
    <i name="ewald">  56062.20408778 </i>
    <i name="hartreedc"> -85999.60647473 </i>
    <i name="XCdc">    915.87483492 </i>
    <i name="pawpsdc">  33155.07163195 </i>
    <i name="pawaedc"> -35201.94032671 </i>
    <i name="eentropy">     -0.00531255 </i>
    <i name="bandstr">  -1534.87344841 </i>
    <i name="atom">  32354.87237921 </i>
    <i name="e_fr_energy">   -135.23709674 </i>
    <i name="e_wo_entrp">   -135.23178419 </i>
    <i name="e_0_energy">   -135.23444046 </i>
   </energy>
  </scstep>
  <scstep>
   <time name="dav">    4.77    4.79</time>
   <time name="total">    5.41    5.43</time>
   <energy>
    <i name="e_fr_energy">   -135.25166338 </i>
    <i name="e_wo_entrp">   -135.24713099 </i>
    <i name="e_0_energy">   -135.24939718 </i>
   </energy>
  </scstep>
  <scstep>
   <time name="dav">    4.10    4.11</time>
   <time name="total">    4.74    4.77</time>
   <energy>
    <i name="e_fr_energy">   -135.23455965 </i>
    <i name="e_wo_entrp">   -135.22935208 </i>
    <i name="e_0_energy">   -135.23195586 </i>
   </energy>
  </scstep>
  <scstep>
   <time name="dav">    4.78    4.79</time>
   <time name="total">    5.42    5.43</time>
   <energy>
    <i name="e_fr_energy">   -135.23979080 </i>
    <i name="e_wo_entrp">   -135.23414622 </i>
    <i name="e_0_energy">   -135.23696851 </i>
   </energy>
  </scstep>
  <scstep>
   <time name="dav">    4.24    4.25</time>
   <time name="total">    4.88    4.89</time>
   <energy>
    <i name="e_fr_energy">   -135.23743886 </i>
    <i name="e_wo_entrp">   -135.23202650 </i>
    <i name="e_0_energy">   -135.23473268 </i>
   </energy>
  </scstep>
  <scstep>
   <time name="dav">    4.14    4.15</time>
   <time name="total">    4.77    4.80</time>
   <energy>
    <i name="e_fr_energy">   -135.23665835 </i>
    <i name="e_wo_entrp">   -135.23161930 </i>
    <i name="e_0_energy">   -135.23413883 </i>
   </energy>
  </scstep>
  <scstep>
   <time name="dav">    4.38    4.39</time>
   <time name="total">    5.02    5.04</time>
   <energy>
    <i name="e_fr_energy">   -135.23735726 </i>
    <i name="e_wo_entrp">   -135.23172921 </i>
    <i name="e_0_energy">   -135.23454323 </i>
   </energy>
  </scstep>
  <scstep>
   <time name="dav">    4.15    4.16</time>
   <time name="total">    4.78    4.80</time>
   <energy>
    <i name="e_fr_energy">   -135.23727006 </i>
    <i name="e_wo_entrp">   -135.23176122 </i>
    <i name="e_0_energy">   -135.23451564 </i>
   </energy>
  </scstep>
  <scstep>
   <time name="dav">    3.99    4.00</time>
   <time name="total">    4.63    4.65</time>
   <energy>
    <i name="e_fr_energy">   -135.23653046 </i>
    <i name="e_wo_entrp">   -135.23146901 </i>
    <i name="e_0_energy">   -135.23399974 </i>
   </energy>
  </scstep>
  <scstep>
   <time name="dav">    2.89    2.90</time>
   <time name="total">    3.53    3.55</time>
   <energy>
    <i name="e_fr_energy">   -135.23666871 </i>
    <i name="e_wo_entrp">   -135.23143032 </i>
    <i name="e_0_energy">   -135.23404952 </i>
   </energy>
  </scstep>
  <scstep>
   <time name="dav">    2.86    2.87</time>
   <time name="total">    3.32    3.33</time>
   <energy>
    <i name="alphaZ">    113.16553179 </i>
    <i name="ewald">  56062.20408778 </i>
    <i name="hartreedc"> -85998.77768738 </i>
    <i name="XCdc">    915.78993261 </i>
    <i name="pawpsdc">  33176.81179281 </i>
    <i name="pawaedc"> -35223.97105950 </i>
    <i name="eentropy">     -0.00516268 </i>
    <i name="bandstr">  -1535.32653521 </i>
    <i name="atom">  32354.87237921 </i>
    <i name="e_fr_energy">   -135.23672056 </i>
    <i name="e_wo_entrp">   -135.23155788 </i>
    <i name="e_0_energy">   -135.23413922 </i>
   </energy>
  </scstep>
  <structure>
   <crystal>
    <varray name="basis" >
     <v>      16.00000000       0.00000000       0.00000000 </v>
     <v>       0.00000000      16.00000000       0.00000000 </v>
     <v>       0.00000000       0.00000000      16.00000000 </v>
    </varray>
    <i name="volume">   4096.00000000 </i>
    <varray name="rec_basis" >
     <v>       0.06250000       0.00000000       0.00000000 </v>
     <v>       0.00000000       0.06250000       0.00000000 </v>
     <v>       0.00000000       0.00000000       0.06250000 </v>
    </varray>
   </crystal>
   <varray name="positions" >
    <v>       0.24230000       0.46574076       0.39363620 </v>
    <v>       0.47664704       0.46997794       0.67709076 </v>
    <v>       0.56544398       0.67641888       0.38367967 </v>
    <v>       0.57296908       0.26563623       0.38503389 </v>
    <v>       0.33780231       0.46769107       0.62350720 </v>
    <v>       0.65963999       0.62050104       0.49150987 </v>
    <v>       0.66498951       0.32533936       0.49248947 </v>
    <v>       0.32691147       0.57354800       0.34487934 </v>
    <v>       0.33127524       0.36130196       0.34514051 </v>
    <v>       0.40253860       0.46810704       0.25205512 </v>
    <v>       0.53753639       0.26426892       0.53136775 </v>
    <v>       0.53035255       0.67700475       0.53045727 </v>
    <v>       0.65795505       0.54888975       0.35872408 </v>
    <v>       0.65952015       0.39572695       0.35886876 </v>
    <v>       0.42272043       0.59520264       0.59468142 </v>
    <v>       0.42692291       0.34310095       0.59463756 </v>
    <v>       0.46807292       0.59449927       0.30769028 </v>
    <v>       0.47351442       0.34518806       0.30882804 </v>
    <v>       0.42722931       0.30100884       0.44391482 </v>
    <v>       0.42144132       0.63614194       0.44340877 </v>
    <v>       0.32002045       0.54290585       0.49418051 </v>
    <v>       0.32331079       0.39201113       0.49415473 </v>
    <v>       0.54431508       0.47145016       0.30680155 </v>
    <v>       0.57248644       0.54657632       0.58999408 </v>
    <v>       0.57471983       0.39608251       0.59032466 </v>
    <v>       0.65993510       0.47272156       0.48949748 </v>
    <v>       0.45230035       0.46978565       0.53483294 </v>
    <v>       0.53666560       0.54764284       0.44018556 </v>
    <v>       0.53887363       0.39376595       0.44084950 </v>
    <v>       0.41238153       0.46916681       0.39373002 </v>
    <v>       0.48608764       0.74378954       0.74954778 </v>
    <v>       0.49978133       0.77680679       0.78255591 </v>
   </varray>
  </structure>
  <varray name="forces" >
   <v>       0.04363476      -0.00190679       0.00554932 </v>
   <v>      -0.00008885       0.00548397      -0.02062770 </v>
   <v>      -0.01339915      -0.01675264       0.00981718 </v>
   <v>      -0.03789463       0.01358649       0.00130063 </v>
   <v>       0.01364267       0.00421088      -0.00987092 </v>
   <v>      -0.02241978      -0.02266193      -0.00248760 </v>
   <v>      -0.04793176       0.01320187      -0.02015260 </v>
   <v>       0.03060684      -0.01612603       0.00846113 </v>
   <v>       0.02779276       0.00142898       0.00990585 </v>
   <v>      -0.01422185       0.00284990       0.01959524 </v>
   <v>       0.00122003       0.02265070       0.00114479 </v>
   <v>       0.00733322      -0.01635192       0.00421379 </v>
   <v>      -0.02812403      -0.01001911       0.00039989 </v>
   <v>      -0.02378893       0.02870774      -0.00045806 </v>
   <v>      -0.00064988       0.00058458      -0.01271560 </v>
   <v>       0.01392141       0.00824422      -0.01163794 </v>
   <v>       0.00449459      -0.00923711       0.01074007 </v>
   <v>       0.00101392       0.00746636       0.00746912 </v>
   <v>       0.02235518       0.03424336       0.01459002 </v>
   <v>       0.03177927      -0.03944286       0.01579052 </v>
   <v>       0.02776261      -0.01925764      -0.00703511 </v>
   <v>       0.01228237       0.00248618      -0.01295419 </v>
   <v>      -0.01440561      -0.00000575      -0.00288651 </v>
   <v>      -0.03588786      -0.00485229      -0.01629282 </v>
   <v>      -0.01623502       0.02572152      -0.01877653 </v>
   <v>      -0.01945378       0.00172291       0.01257436 </v>
   <v>      -0.00156360      -0.00415179      -0.02498043 </v>
   <v>      -0.00018929      -0.02854128       0.01844576 </v>
   <v>      -0.00770942       0.02504979       0.00701834 </v>
   <v>       0.04390078      -0.00081905       0.02172423 </v>
   <v>       0.24033094       0.54609034       0.54687835 </v>
   <v>      -0.23810790      -0.55360359      -0.55474257 </v>
  </varray>
  <varray name="stress" >
   <v>      -1.06285285       0.01040218      -0.04868567 </v>
   <v>       0.01040217      -0.95754045      -0.08232984 </v>
   <v>      -0.04868567      -0.08232983      -0.75653172 </v>
  </varray>
  <energy>
   <i name="e_fr_energy">   -135.23672056 </i>
   <i name="e_wo_entrp">   -135.23155788 </i>
   <i name="e_0_energy">   -135.23413922 </i>
  </energy>
  <time name="totalsc">   56.26   56.50</time>
 </calculation>
 <calculation>
  <scstep>
   <time name="dav">    3.94    3.95</time>
   <time name="total">    4.58    4.59</time>
   <energy>
    <i name="alphaZ">    113.16553179 </i>
    <i name="ewald">  56081.71693826 </i>
    <i name="hartreedc"> -86017.73254363 </i>
    <i name="XCdc">    915.84168585 </i>
    <i name="pawpsdc">  33177.21100905 </i>
    <i name="pawaedc"> -35224.38381472 </i>
    <i name="eentropy">     -0.00521982 </i>
    <i name="bandstr">  -1535.93491644 </i>
    <i name="atom">  32354.87237921 </i>
    <i name="e_fr_energy">   -135.24895043 </i>
    <i name="e_wo_entrp">   -135.24373062 </i>
    <i name="e_0_energy">   -135.24634053 </i>
   </energy>
  </scstep>
  <scstep>
   <time name="dav">    4.49    4.50</time>
   <time name="total">    5.13    5.15</time>
   <energy>
    <i name="e_fr_energy">   -135.25147943 </i>
    <i name="e_wo_entrp">   -135.24636687 </i>
    <i name="e_0_energy">   -135.24892315 </i>
   </energy>
  </scstep>
  <scstep>
   <time name="dav">    4.13    4.14</time>
   <time name="total">    4.77    4.79</time>
   <energy>
    <i name="e_fr_energy">   -135.24818848 </i>
    <i name="e_wo_entrp">   -135.24290431 </i>
    <i name="e_0_energy">   -135.24554639 </i>
   </energy>
  </scstep>
  <scstep>
   <time name="dav">    4.46    4.47</time>
   <time name="total">    5.10    5.12</time>
   <energy>
    <i name="e_fr_energy">   -135.24897617 </i>
    <i name="e_wo_entrp">   -135.24380798 </i>
    <i name="e_0_energy">   -135.24639207 </i>
   </energy>
  </scstep>
  <scstep>
   <time name="dav">    4.13    4.14</time>
   <time name="total">    4.77    4.79</time>
   <energy>
    <i name="e_fr_energy">   -135.24946287 </i>
    <i name="e_wo_entrp">   -135.24414117 </i>
    <i name="e_0_energy">   -135.24680202 </i>
   </energy>
  </scstep>
  <scstep>
   <time name="dav">    4.03    4.04</time>
   <time name="total">    4.67    4.69</time>
   <energy>
    <i name="e_fr_energy">   -135.24808182 </i>
    <i name="e_wo_entrp">   -135.24300794 </i>
    <i name="e_0_energy">   -135.24554488 </i>
   </energy>
  </scstep>
  <scstep>
   <time name="dav">    3.05    3.06</time>
   <time name="total">    3.68    3.70</time>
   <energy>
    <i name="e_fr_energy">   -135.24821542 </i>
    <i name="e_wo_entrp">   -135.24297604 </i>
    <i name="e_0_energy">   -135.24559573 </i>
   </energy>
  </scstep>
  <scstep>
   <time name="dav">    2.80    2.81</time>
   <time name="total">    3.44    3.46</time>
   <energy>
    <i name="e_fr_energy">   -135.24834803 </i>
    <i name="e_wo_entrp">   -135.24297114 </i>
    <i name="e_0_energy">   -135.24565958 </i>
   </energy>
  </scstep>
  <scstep>
   <time name="dav">    2.62    2.63</time>
   <time name="total">    3.26    3.28</time>
   <energy>
    <i name="e_fr_energy">   -135.24822552 </i>
    <i name="e_wo_entrp">   -135.24303055 </i>
    <i name="e_0_energy">   -135.24562803 </i>
   </energy>
  </scstep>
  <scstep>
   <time name="dav">    2.62    2.63</time>
   <time name="total">    3.07    3.09</time>
   <energy>
    <i name="alphaZ">    113.16553179 </i>
    <i name="ewald">  56081.71693826 </i>
    <i name="hartreedc"> -86017.83284072 </i>
    <i name="XCdc">    915.86822027 </i>
    <i name="pawpsdc">  33183.75113076 </i>
    <i name="pawaedc"> -35230.97029435 </i>
    <i name="eentropy">     -0.00522871 </i>
    <i name="bandstr">  -1535.81408322 </i>
    <i name="atom">  32354.87237921 </i>
    <i name="e_fr_energy">   -135.24824670 </i>
    <i name="e_wo_entrp">   -135.24301799 </i>
    <i name="e_0_energy">   -135.24563235 </i>
   </energy>
  </scstep>
  <structure>
   <crystal>
    <varray name="basis" >
     <v>      16.00000000       0.00000000       0.00000000 </v>
     <v>       0.00000000      16.00000000       0.00000000 </v>
     <v>       0.00000000       0.00000000      16.00000000 </v>
    </varray>
    <i name="volume">   4096.00000000 </i>
    <varray name="rec_basis" >
     <v>       0.06250000       0.00000000       0.00000000 </v>
     <v>       0.00000000       0.06250000       0.00000000 </v>
     <v>       0.00000000       0.00000000       0.06250000 </v>
    </varray>
   </crystal>
   <varray name="positions" >
    <v>       0.24234407       0.46573883       0.39364181 </v>
    <v>       0.47664695       0.46998348       0.67706993 </v>
    <v>       0.56543044       0.67640196       0.38368959 </v>
    <v>       0.57293080       0.26564995       0.38503521 </v>
    <v>       0.33781609       0.46769532       0.62349723 </v>
    <v>       0.65961734       0.62047815       0.49150736 </v>
    <v>       0.66494110       0.32535270       0.49246912 </v>
    <v>       0.32694239       0.57353171       0.34488789 </v>
    <v>       0.33130332       0.36130341       0.34515052 </v>
    <v>       0.40252424       0.46810992       0.25207491 </v>
    <v>       0.53753762       0.26429180       0.53136890 </v>
    <v>       0.53035995       0.67698824       0.53046153 </v>
    <v>       0.65792665       0.54887963       0.35872448 </v>
    <v>       0.65949612       0.39575594       0.35886830 </v>
    <v>       0.42271977       0.59520323       0.59466858 </v>
    <v>       0.42693697       0.34310928       0.59462580 </v>
    <v>       0.46807746       0.59448994       0.30770112 </v>
    <v>       0.47351544       0.34519560       0.30883558 </v>
    <v>       0.42725189       0.30104343       0.44392956 </v>
    <v>       0.42147342       0.63610210       0.44342472 </v>
    <v>       0.32004849       0.54288640       0.49417341 </v>
    <v>       0.32332319       0.39201364       0.49414165 </v>
    <v>       0.54430053       0.47145015       0.30679864 </v>
    <v>       0.57245019       0.54657142       0.58997763 </v>
    <v>       0.57470343       0.39610849       0.59030569 </v>
    <v>       0.65991545       0.47272330       0.48951018 </v>
    <v>       0.45229877       0.46978146       0.53480771 </v>
    <v>       0.53666540       0.54761401       0.44020419 </v>
    <v>       0.53886584       0.39379125       0.44085659 </v>
    <v>       0.41242587       0.46916598       0.39375196 </v>
    <v>       0.48633039       0.74434113       0.75010017 </v>
    <v>       0.49954082       0.77624761       0.78199559 </v>
   </varray>
  </structure>
  <varray name="forces" >
   <v>       0.04498217      -0.00198921       0.00387260 </v>
   <v>      -0.00051083       0.00517533      -0.00707977 </v>
   <v>      -0.01417238      -0.01742088       0.01072834 </v>
   <v>      -0.03691038       0.01191794       0.00060007 </v>
   <v>       0.01358406       0.00353936      -0.00879915 </v>
   <v>      -0.01920240      -0.01921141      -0.00379477 </v>
   <v>      -0.04460913       0.01211659      -0.02081462 </v>
   <v>       0.03124541      -0.01547316       0.00801271 </v>
   <v>       0.02798170       0.00136951       0.00845916 </v>
   <v>      -0.01503937       0.00223903       0.01424317 </v>
   <v>       0.00099867       0.01482909       0.00359148 </v>
   <v>       0.00710041      -0.00918357       0.00592054 </v>
   <v>      -0.03051122      -0.00887706       0.00356394 </v>
   <v>      -0.02718309       0.02673264       0.00291137 </v>
   <v>      -0.00103514      -0.00109773      -0.01136172 </v>
   <v>       0.01229329       0.01031530      -0.01115151 </v>
   <v>       0.00568838      -0.00732516       0.00684230 </v>
   <v>       0.00183072       0.00449546       0.00074776 </v>
   <v>       0.02103202       0.03062113       0.01246089 </v>
   <v>       0.03027163      -0.03567008       0.01416731 </v>
   <v>       0.02567612      -0.01703694      -0.00628900 </v>
   <v>       0.01086886       0.00046352      -0.01088019 </v>
   <v>      -0.01515352      -0.00009775      -0.00802822 </v>
   <v>      -0.03175116      -0.00209893      -0.01089187 </v>
   <v>      -0.01431442       0.02266261      -0.01388512 </v>
   <v>      -0.01597158       0.00178413       0.01164666 </v>
   <v>      -0.00295677      -0.00263412      -0.01405479 </v>
   <v>       0.00155418      -0.02399761       0.01293529 </v>
   <v>      -0.00544429       0.02131483       0.00221813 </v>
   <v>       0.03774483      -0.00150382       0.01187908 </v>
   <v>       0.01049536      -0.00571794      -0.00520687 </v>
   <v>      -0.00858213      -0.00024110      -0.00256320 </v>
  </varray>
  <varray name="stress" >
   <v>      -0.98308439       0.05186179      -0.01481823 </v>
   <v>       0.05186180      -0.84079897       0.02083145 </v>
   <v>      -0.01481823       0.02083144      -0.69898973 </v>
  </varray>
  <energy>
   <i name="e_fr_energy">   -135.24824670 </i>
   <i name="e_wo_entrp">   -135.24301799 </i>
   <i name="e_0_energy">   -135.24563235 </i>
  </energy>
  <time name="totalsc">   47.66   47.88</time>
 </calculation>
 <calculation>
  <scstep>
   <time name="dav">    3.80    3.81</time>
   <time name="total">    4.44    4.45</time>
   <energy>
    <i name="alphaZ">    113.16553179 </i>
    <i name="ewald">  56131.02354471 </i>
    <i name="hartreedc"> -86066.66587341 </i>
    <i name="XCdc">    915.93090249 </i>
    <i name="pawpsdc">  33183.80815887 </i>
    <i name="pawaedc"> -35231.02893185 </i>
    <i name="eentropy">     -0.00527105 </i>
    <i name="bandstr">  -1536.34949153 </i>
    <i name="atom">  32354.87237921 </i>
    <i name="e_fr_energy">   -135.24905077 </i>
    <i name="e_wo_entrp">   -135.24377972 </i>
    <i name="e_0_energy">   -135.24641525 </i>
   </energy>
  </scstep>
  <scstep>
   <time name="dav">    4.71    4.72</time>
   <time name="total">    5.35    5.37</time>
   <energy>
    <i name="e_fr_energy">   -135.25431723 </i>
    <i name="e_wo_entrp">   -135.24954226 </i>
    <i name="e_0_energy">   -135.25192974 </i>
   </energy>
  </scstep>
  <scstep>
   <time name="dav">    4.03    4.04</time>
   <time name="total">    4.66    4.68</time>
   <energy>
    <i name="e_fr_energy">   -135.24830138 </i>
    <i name="e_wo_entrp">   -135.24312171 </i>
    <i name="e_0_energy">   -135.24571154 </i>
   </energy>
  </scstep>
  <scstep>
   <time name="dav">    4.27    4.28</time>
   <time name="total">    4.91    4.93</time>
   <energy>
    <i name="e_fr_energy">   -135.24956688 </i>
    <i name="e_wo_entrp">   -135.24424650 </i>
    <i name="e_0_energy">   -135.24690669 </i>
   </energy>
  </scstep>
  <scstep>
   <time name="dav">    3.63    3.64</time>
   <time name="total">    4.26    4.28</time>
   <energy>
    <i name="e_fr_energy">   -135.24935406 </i>
    <i name="e_wo_entrp">   -135.24410813 </i>
    <i name="e_0_energy">   -135.24673109 </i>
   </energy>
  </scstep>
  <scstep>
   <time name="dav">    2.83    2.83</time>
   <time name="total">    3.27    3.29</time>
   <energy>
    <i name="alphaZ">    113.16553179 </i>
    <i name="ewald">  56131.02354471 </i>
    <i name="hartreedc"> -86066.52274976 </i>
    <i name="XCdc">    915.92026911 </i>
    <i name="pawpsdc">  33189.71882834 </i>
    <i name="pawaedc"> -35237.02566656 </i>
    <i name="eentropy">     -0.00519654 </i>
    <i name="bandstr">  -1536.39624917 </i>
    <i name="atom">  32354.87237921 </i>
    <i name="e_fr_energy">   -135.24930886 </i>
    <i name="e_wo_entrp">   -135.24411232 </i>
    <i name="e_0_energy">   -135.24671059 </i>
   </energy>
  </scstep>
  <structure>
   <crystal>
    <varray name="basis" >
     <v>      16.00000000       0.00000000       0.00000000 </v>
     <v>       0.00000000      16.00000000       0.00000000 </v>
     <v>       0.00000000       0.00000000      16.00000000 </v>
    </varray>
    <i name="volume">   4096.00000000 </i>
    <varray name="rec_basis" >
     <v>       0.06250000       0.00000000       0.00000000 </v>
     <v>       0.00000000       0.06250000       0.00000000 </v>
     <v>       0.00000000       0.00000000       0.06250000 </v>
    </varray>
   </crystal>
   <varray name="positions" >
    <v>       0.24247978       0.46573283       0.39365349 </v>
    <v>       0.47664541       0.46999909       0.67704861 </v>
    <v>       0.56538769       0.67634940       0.38372195 </v>
    <v>       0.57281945       0.26568590       0.38503701 </v>
    <v>       0.33785707       0.46770600       0.62347069 </v>
    <v>       0.65955942       0.62042020       0.49149591 </v>
    <v>       0.66480653       0.32538925       0.49240632 </v>
    <v>       0.32703665       0.57348503       0.34491206 </v>
    <v>       0.33138773       0.36130754       0.34517603 </v>
    <v>       0.40247886       0.46811667       0.25211786 </v>
    <v>       0.53754064       0.26433651       0.53137975 </v>
    <v>       0.53038137       0.67696055       0.53047939 </v>
    <v>       0.65783459       0.54885286       0.35873524 </v>
    <v>       0.65941410       0.39583658       0.35887709 </v>
    <v>       0.42271665       0.59519992       0.59463431 </v>
    <v>       0.42697406       0.34314041       0.59459216 </v>
    <v>       0.46809462       0.59446784       0.30772175 </v>
    <v>       0.47352096       0.34520915       0.30883782 </v>
    <v>       0.42731533       0.30113580       0.44396714 </v>
    <v>       0.42156474       0.63599450       0.44346745 </v>
    <v>       0.32012594       0.54283501       0.49415444 </v>
    <v>       0.32335598       0.39201503       0.49410883 </v>
    <v>       0.54425481       0.47144986       0.30677440 </v>
    <v>       0.57235442       0.54656510       0.58994479 </v>
    <v>       0.57466026       0.39617685       0.59026382 </v>
    <v>       0.65986728       0.47272868       0.48954531 </v>
    <v>       0.45228984       0.46977352       0.53476535 </v>
    <v>       0.53667010       0.54754163       0.44024319 </v>
    <v>       0.53884942       0.39385554       0.44086326 </v>
    <v>       0.41253972       0.46916144       0.39378777 </v>
    <v>       0.48636133       0.74432214       0.75008272 </v>
    <v>       0.49951565       0.77624863       0.78198959 </v>
   </varray>
  </structure>
  <varray name="forces" >
   <v>       0.03600131      -0.00234315      -0.00069461 </v>
   <v>      -0.00167769       0.00515132      -0.00122911 </v>
   <v>      -0.01171788      -0.01358257       0.00927147 </v>
   <v>      -0.03138280       0.00753023      -0.00045306 </v>
   <v>       0.00770957       0.00244521      -0.00474156 </v>
   <v>      -0.01209669      -0.01413091      -0.00099180 </v>
   <v>      -0.03253382       0.00970020      -0.01780433 </v>
   <v>       0.02527351      -0.00838319       0.00525220 </v>
   <v>       0.02304382      -0.00205809       0.00494761 </v>
   <v>      -0.01682579       0.00169761       0.00964356 </v>
   <v>      -0.00027321       0.00716279       0.00715352 </v>
   <v>       0.00584242      -0.00182946       0.00818021 </v>
   <v>      -0.02255559      -0.00546883      -0.00057600 </v>
   <v>      -0.02064411       0.02169018      -0.00096829 </v>
   <v>      -0.00292729       0.00020362      -0.00545071 </v>
   <v>       0.00819135       0.00756225      -0.00498522 </v>
   <v>       0.00709579      -0.00482179       0.00305169 </v>
   <v>       0.00195090       0.00306610      -0.00499335 </v>
   <v>       0.01651276       0.02422435       0.01058252 </v>
   <v>       0.02268014      -0.02804467       0.01214412 </v>
   <v>       0.01949275      -0.01224996      -0.00364137 </v>
   <v>       0.00837175      -0.00191888      -0.00460268 </v>
   <v>      -0.01455555      -0.00049392      -0.01210894 </v>
   <v>      -0.02394583       0.00147092      -0.00479227 </v>
   <v>      -0.01048930       0.01670518      -0.00933932 </v>
   <v>      -0.00770213       0.00154682       0.01121527 </v>
   <v>      -0.00566449      -0.00087417      -0.00645407 </v>
   <v>       0.00387097      -0.01936008       0.00790760 </v>
   <v>      -0.00268421       0.01516203       0.00010875 </v>
   <v>       0.02953826      -0.00438525       0.00268809 </v>
   <v>       0.01138477      -0.00318749      -0.00326331 </v>
   <v>      -0.00928369      -0.00218639      -0.00505663 </v>
  </varray>
  <varray name="stress" >
   <v>      -0.87745175       0.05802443      -0.01688201 </v>
   <v>       0.05802442      -0.74943830       0.00976955 </v>
   <v>      -0.01688203       0.00976955      -0.65785810 </v>
  </varray>
  <energy>
   <i name="e_fr_energy">   -135.24930886 </i>
   <i name="e_wo_entrp">   -135.24411232 </i>
   <i name="e_0_energy">   -135.24671059 </i>
  </energy>
  <time name="totalsc">   31.81   31.96</time>
  <eigenvalues>
   <array>
    <dimension dim="1">band</dimension>
    <dimension dim="2">kpoint</dimension>
    <dimension dim="3">spin</dimension>
    <field>eigene</field>
    <field>occ</field>
    <set>
     <set comment="spin 1">
      <set comment="kpoint 1">
       <r>  -10.7641    1.0000 </r>
       <r>   -9.1834    1.0000 </r>
       <r>   -9.1751    1.0000 </r>
       <r>   -9.1349    1.0000 </r>
       <r>   -9.0563    1.0000 </r>
       <r>   -7.8121    1.0000 </r>
       <r>   -7.7793    1.0000 </r>
       <r>   -7.7741    1.0000 </r>
       <r>   -7.6994    1.0000 </r>
       <r>   -7.6420    1.0000 </r>
       <r>   -7.5702    1.0000 </r>
       <r>   -7.5185    1.0000 </r>
       <r>   -7.4178    1.0000 </r>
       <r>   -7.3961    1.0000 </r>
       <r>   -7.2998    1.0000 </r>
       <r>   -7.1679    1.0000 </r>
       <r>   -7.1581    1.0000 </r>
       <r>   -7.1574    1.0000 </r>
       <r>   -7.1135    1.0000 </r>
       <r>   -7.0701    1.0000 </r>
       <r>   -6.9528    1.0000 </r>
       <r>   -6.9448    1.0000 </r>
       <r>   -6.9143    1.0000 </r>
       <r>   -6.7748    1.0000 </r>
       <r>   -6.7170    1.0000 </r>
       <r>   -6.6415    1.0000 </r>
       <r>   -6.5661    1.0000 </r>
       <r>   -6.4831    1.0000 </r>
       <r>   -6.4347    1.0000 </r>
       <r>   -6.4256    1.0000 </r>
       <r>   -6.3965    1.0000 </r>
       <r>   -6.3684    1.0000 </r>
       <r>   -6.3503    1.0000 </r>
       <r>   -6.2702    1.0000 </r>
       <r>   -6.2248    1.0000 </r>
       <r>   -6.2202    1.0000 </r>
       <r>   -6.1661    1.0000 </r>
       <r>   -6.1358    1.0000 </r>
       <r>   -6.0781    1.0000 </r>
       <r>   -6.0686    1.0000 </r>
       <r>   -6.0664    1.0000 </r>
       <r>   -6.0103    1.0000 </r>
       <r>   -5.9987    1.0000 </r>
       <r>   -5.9814    1.0000 </r>
       <r>   -5.9214    1.0000 </r>
       <r>   -5.8924    1.0000 </r>
       <r>   -5.8610    1.0000 </r>
       <r>   -5.8434    1.0000 </r>
       <r>   -5.8339    1.0000 </r>
       <r>   -5.8235    1.0000 </r>
       <r>   -5.8115    1.0000 </r>
       <r>   -5.7940    1.0000 </r>
       <r>   -5.7746    1.0000 </r>
       <r>   -5.7243    1.0000 </r>
       <r>   -5.6724    1.0000 </r>
       <r>   -5.6255    1.0000 </r>
       <r>   -5.6030    1.0000 </r>
       <r>   -5.5831    1.0000 </r>
       <r>   -5.5424    1.0000 </r>
       <r>   -5.5171    1.0000 </r>
       <r>   -5.4869    1.0000 </r>
       <r>   -5.4778    1.0000 </r>
       <r>   -5.4312    1.0000 </r>
       <r>   -5.3990    1.0000 </r>
       <r>   -5.3953    1.0000 </r>
       <r>   -5.3425    1.0000 </r>
       <r>   -5.2887    1.0000 </r>
       <r>   -5.2591    1.0000 </r>
       <r>   -5.2067    1.0000 </r>
       <r>   -5.1930    1.0000 </r>
       <r>   -5.1563    1.0000 </r>
       <r>   -5.1373    1.0000 </r>
       <r>   -5.1260    1.0000 </r>
       <r>   -5.1150    1.0000 </r>
       <r>   -5.0586    1.0000 </r>
       <r>   -5.0458    1.0000 </r>
       <r>   -5.0221    1.0000 </r>
       <r>   -4.9844    1.0000 </r>
       <r>   -4.9783    1.0000 </r>
       <r>   -4.9637    1.0000 </r>
       <r>   -4.9481    1.0000 </r>
       <r>   -4.9002    1.0000 </r>
       <r>   -4.8737    1.0000 </r>
       <r>   -4.8435    1.0000 </r>
       <r>   -4.7898    1.0000 </r>
       <r>   -4.7863    1.0000 </r>
       <r>   -4.7567    1.0000 </r>
       <r>   -4.7355    1.0000 </r>
       <r>   -4.7152    1.0000 </r>
       <r>   -4.6883    1.0000 </r>
       <r>   -4.6565    1.0000 </r>
       <r>   -4.6461    1.0000 </r>
       <r>   -4.6141    1.0000 </r>
       <r>   -4.5806    1.0000 </r>
       <r>   -4.5750    1.0000 </r>
       <r>   -4.5313    1.0000 </r>
       <r>   -4.5045    1.0000 </r>
       <r>   -4.4876    1.0000 </r>
       <r>   -4.4832    1.0000 </r>
       <r>   -4.4650    1.0000 </r>
       <r>   -4.4452    1.0000 </r>
       <r>   -4.4231    1.0000 </r>
       <r>   -4.4134    1.0000 </r>
       <r>   -4.4066    1.0000 </r>
       <r>   -4.3703    1.0000 </r>
       <r>   -4.3393    1.0000 </r>
       <r>   -4.3371    1.0000 </r>
       <r>   -4.3090    1.0000 </r>
       <r>   -4.2944    1.0000 </r>
       <r>   -4.2854    1.0000 </r>
       <r>   -4.2657    1.0000 </r>
       <r>   -4.2531    1.0000 </r>
       <r>   -4.2432    1.0000 </r>
       <r>   -4.2364    1.0000 </r>
       <r>   -4.2130    1.0000 </r>
       <r>   -4.1996    1.0000 </r>
       <r>   -4.1863    1.0000 </r>
       <r>   -4.1678    1.0000 </r>
       <r>   -4.1534    1.0000 </r>
       <r>   -4.1428    1.0000 </r>
       <r>   -4.1353    1.0000 </r>
       <r>   -4.1189    1.0000 </r>
       <r>   -4.1149    1.0000 </r>
       <r>   -4.0695    1.0000 </r>
       <r>   -4.0647    1.0000 </r>
       <r>   -4.0458    1.0000 </r>
       <r>   -4.0378    1.0000 </r>
       <r>   -4.0237    1.0000 </r>
       <r>   -4.0226    1.0000 </r>
       <r>   -4.0184    1.0000 </r>
       <r>   -4.0114    1.0000 </r>
       <r>   -3.9977    1.0000 </r>
       <r>   -3.9713    1.0000 </r>
       <r>   -3.9673    1.0000 </r>
       <r>   -3.9564    1.0000 </r>
       <r>   -3.9425    1.0000 </r>
       <r>   -3.9379    1.0000 </r>
       <r>   -3.9332    1.0000 </r>
       <r>   -3.9185    1.0000 </r>
       <r>   -3.9107    1.0000 </r>
       <r>   -3.9079    1.0000 </r>
       <r>   -3.8878    1.0000 </r>
       <r>   -3.8782    1.0000 </r>
       <r>   -3.8704    1.0000 </r>
       <r>   -3.8632    1.0000 </r>
       <r>   -3.8482    1.0000 </r>
       <r>   -3.8372    1.0000 </r>
       <r>   -3.8284    1.0000 </r>
       <r>   -3.8261    1.0000 </r>
       <r>   -3.8257    1.0000 </r>
       <r>   -3.8048    1.0000 </r>
       <r>   -3.7955    1.0000 </r>
       <r>   -3.7853    1.0000 </r>
       <r>   -3.7726    1.0000 </r>
       <r>   -3.7656    1.0000 </r>
       <r>   -3.7345    1.0000 </r>
       <r>   -3.7184    1.0000 </r>
       <r>   -3.7054    1.0000 </r>
       <r>   -3.6931    1.0000 </r>
       <r>   -3.5877    1.0000 </r>
       <r>   -3.5436    1.0000 </r>
       <r>   -2.9335    0.0000 </r>
       <r>   -2.8927    0.0000 </r>
       <r>   -2.8401    0.0000 </r>
       <r>   -2.6858    0.0000 </r>
       <r>   -2.6039    0.0000 </r>
       <r>   -2.5285    0.0000 </r>
       <r>   -2.4010    0.0000 </r>
       <r>   -2.0863    0.0000 </r>
       <r>   -2.0006    0.0000 </r>
       <r>   -1.9216    0.0000 </r>
       <r>   -1.0788    0.0000 </r>
       <r>   -1.0718    0.0000 </r>
       <r>   -0.9669    0.0000 </r>
       <r>   -0.8770    0.0000 </r>
       <r>   -0.7457    0.0000 </r>
       <r>   -0.7427    0.0000 </r>
       <r>   -0.7308    0.0000 </r>
       <r>   -0.5725    0.0000 </r>
       <r>   -0.4651    0.0000 </r>
       <r>   -0.4234    0.0000 </r>
       <r>   -0.4009    0.0000 </r>
       <r>   -0.3602    0.0000 </r>
       <r>   -0.2941    0.0000 </r>
       <r>   -0.2143    0.0000 </r>
       <r>   -0.0532    0.0000 </r>
       <r>    0.8439    0.0000 </r>
       <r>    0.9838    0.0000 </r>
       <r>    1.0083    0.0000 </r>
       <r>    1.1348    0.0000 </r>
       <r>    1.1445    0.0000 </r>
       <r>    1.2112    0.0000 </r>
       <r>    1.3025    0.0000 </r>
       <r>    1.3859    0.0000 </r>
       <r>    1.4093    0.0000 </r>
       <r>    1.4469    0.0000 </r>
       <r>    1.4614    0.0000 </r>
       <r>    1.4913    0.0000 </r>
      </set>
     </set>
     <set comment="spin 2">
      <set comment="kpoint 1">
       <r>  -10.7874    1.0000 </r>
       <r>   -9.1836    1.0000 </r>
       <r>   -9.1764    1.0000 </r>
       <r>   -9.1333    1.0000 </r>
       <r>   -9.0486    1.0000 </r>
       <r>   -7.6334    1.0000 </r>
       <r>   -7.6234    1.0000 </r>
       <r>   -7.5964    1.0000 </r>
       <r>   -7.5206    1.0000 </r>
       <r>   -7.4136    1.0000 </r>
       <r>   -7.2622    1.0000 </r>
       <r>   -7.0990    1.0000 </r>
       <r>   -7.0592    1.0000 </r>
       <r>   -7.0213    1.0000 </r>
       <r>   -6.9792    1.0000 </r>
       <r>   -6.7798    1.0000 </r>
       <r>   -6.7700    1.0000 </r>
       <r>   -6.6997    1.0000 </r>
       <r>   -6.6819    1.0000 </r>
       <r>   -6.6166    1.0000 </r>
       <r>   -6.5602    1.0000 </r>
       <r>   -6.5265    1.0000 </r>
       <r>   -6.4784    1.0000 </r>
       <r>   -6.2298    1.0000 </r>
       <r>   -6.2050    1.0000 </r>
       <r>   -6.0921    1.0000 </r>
       <r>   -6.0275    1.0000 </r>
       <r>   -5.9042    1.0000 </r>
       <r>   -5.8616    1.0000 </r>
       <r>   -5.8272    1.0000 </r>
       <r>   -5.8166    1.0000 </r>
       <r>   -5.7849    1.0000 </r>
       <r>   -5.7317    1.0000 </r>
       <r>   -5.6795    1.0000 </r>
       <r>   -5.6566    1.0000 </r>
       <r>   -5.6051    1.0000 </r>
       <r>   -5.5761    1.0000 </r>
       <r>   -5.5388    1.0000 </r>
       <r>   -5.5161    1.0000 </r>
       <r>   -5.4762    1.0000 </r>
       <r>   -5.4651    1.0000 </r>
       <r>   -5.4203    1.0000 </r>
       <r>   -5.3717    1.0000 </r>
       <r>   -5.3470    1.0000 </r>
       <r>   -5.3313    1.0000 </r>
       <r>   -5.3097    1.0000 </r>
       <r>   -5.2527    1.0000 </r>
       <r>   -5.2346    1.0000 </r>
       <r>   -5.2296    1.0000 </r>
       <r>   -5.2127    1.0000 </r>
       <r>   -5.1741    1.0000 </r>
       <r>   -5.1591    1.0000 </r>
       <r>   -5.1288    1.0000 </r>
       <r>   -5.0794    1.0000 </r>
       <r>   -5.0420    1.0000 </r>
       <r>   -5.0010    1.0000 </r>
       <r>   -4.9567    1.0000 </r>
       <r>   -4.9457    1.0000 </r>
       <r>   -4.9410    1.0000 </r>
       <r>   -4.8632    1.0000 </r>
       <r>   -4.8369    1.0000 </r>
       <r>   -4.8185    1.0000 </r>
       <r>   -4.8050    1.0000 </r>
       <r>   -4.7778    1.0000 </r>
       <r>   -4.7514    1.0000 </r>
       <r>   -4.6838    1.0000 </r>
       <r>   -4.6412    1.0000 </r>
       <r>   -4.5852    1.0000 </r>
       <r>   -4.5636    1.0000 </r>
       <r>   -4.5562    1.0000 </r>
       <r>   -4.5431    1.0000 </r>
       <r>   -4.5013    1.0000 </r>
       <r>   -4.4771    1.0000 </r>
       <r>   -4.4287    1.0000 </r>
       <r>   -4.3997    1.0000 </r>
       <r>   -4.3727    1.0000 </r>
       <r>   -4.3394    1.0000 </r>
       <r>   -4.3295    1.0000 </r>
       <r>   -4.2961    1.0000 </r>
       <r>   -4.2904    1.0000 </r>
       <r>   -4.2474    1.0000 </r>
       <r>   -4.2442    1.0000 </r>
       <r>   -4.2112    1.0000 </r>
       <r>   -4.1934    1.0000 </r>
       <r>   -4.1376    1.0000 </r>
       <r>   -4.0981    1.0000 </r>
       <r>   -4.0944    1.0000 </r>
       <r>   -4.0674    1.0000 </r>
       <r>   -4.0602    1.0000 </r>
       <r>   -4.0294    1.0000 </r>
       <r>   -3.9943    1.0000 </r>
       <r>   -3.9923    1.0000 </r>
       <r>   -3.9585    1.0000 </r>
       <r>   -3.9438    1.0000 </r>
       <r>   -3.9295    1.0000 </r>
       <r>   -3.8949    1.0000 </r>
       <r>   -3.8887    1.0000 </r>
       <r>   -3.8537    1.0000 </r>
       <r>   -3.8382    1.0000 </r>
       <r>   -3.8222    1.0000 </r>
       <r>   -3.8072    1.0000 </r>
       <r>   -3.7906    1.0000 </r>
       <r>   -3.7485    1.0000 </r>
       <r>   -3.7455    1.0000 </r>
       <r>   -3.7331    1.0000 </r>
       <r>   -3.7015    1.0000 </r>
       <r>   -3.6729    1.0000 </r>
       <r>   -3.6568    1.0000 </r>
       <r>   -3.6551    1.0000 </r>
       <r>   -3.6409    1.0000 </r>
       <r>   -3.6160    1.0000 </r>
       <r>   -3.5921    1.0000 </r>
       <r>   -3.5780    1.0000 </r>
       <r>   -3.5692    1.0000 </r>
       <r>   -3.5589    1.0000 </r>
       <r>   -3.5316    1.0000 </r>
       <r>   -3.5119    1.0000 </r>
       <r>   -3.5088    1.0000 </r>
       <r>   -3.4949    1.0000 </r>
       <r>   -3.4691    1.0000 </r>
       <r>   -3.4592    1.0000 </r>
       <r>   -3.4497    1.0000 </r>
       <r>   -3.4234    1.0000 </r>
       <r>   -3.4055    1.0000 </r>
       <r>   -3.3994    1.0000 </r>
       <r>   -3.3838    1.0000 </r>
       <r>   -3.3601    1.0000 </r>
       <r>   -3.3586    1.0000 </r>
       <r>   -3.3448    1.0000 </r>
       <r>   -3.3372    1.0000 </r>
       <r>   -3.3210    1.0000 </r>
       <r>   -3.3191    1.0000 </r>
       <r>   -3.3000    1.0000 </r>
       <r>   -3.2934    1.0000 </r>
       <r>   -3.2789    1.0000 </r>
       <r>   -3.2703    1.0000 </r>
       <r>   -3.2332    1.0000 </r>
       <r>   -3.2263    1.0000 </r>
       <r>   -3.2211    1.0000 </r>
       <r>   -3.2043    0.9999 </r>
       <r>   -3.1694    0.8993 </r>
       <r>   -3.1324    0.0903 </r>
       <r>   -3.1187    0.0105 </r>
       <r>   -3.0905    0.0000 </r>
       <r>   -3.0755    0.0000 </r>
       <r>   -3.0586    0.0000 </r>
       <r>   -3.0507    0.0000 </r>
       <r>   -3.0464    0.0000 </r>
       <r>   -3.0169    0.0000 </r>
       <r>   -3.0053    0.0000 </r>
       <r>   -2.9979    0.0000 </r>
       <r>   -2.9715    0.0000 </r>
       <r>   -2.9588    0.0000 </r>
       <r>   -2.9523    0.0000 </r>
       <r>   -2.9508    0.0000 </r>
       <r>   -2.9330    0.0000 </r>
       <r>   -2.9058    0.0000 </r>
       <r>   -2.8956    0.0000 </r>
       <r>   -2.8763    0.0000 </r>
       <r>   -2.8679    0.0000 </r>
       <r>   -2.7409    0.0000 </r>
       <r>   -2.6047    0.0000 </r>
       <r>   -2.4909    0.0000 </r>
       <r>   -2.4839    0.0000 </r>
       <r>   -2.3429    0.0000 </r>
       <r>   -2.2548    0.0000 </r>
       <r>   -2.2001    0.0000 </r>
       <r>   -2.1281    0.0000 </r>
       <r>   -1.8168    0.0000 </r>
       <r>   -1.7354    0.0000 </r>
       <r>   -1.6411    0.0000 </r>
       <r>   -0.9610    0.0000 </r>
       <r>   -0.9437    0.0000 </r>
       <r>   -0.8457    0.0000 </r>
       <r>   -0.7184    0.0000 </r>
       <r>   -0.6011    0.0000 </r>
       <r>   -0.5937    0.0000 </r>
       <r>   -0.5536    0.0000 </r>
       <r>   -0.4364    0.0000 </r>
       <r>   -0.2944    0.0000 </r>
       <r>   -0.2676    0.0000 </r>
       <r>   -0.2522    0.0000 </r>
       <r>   -0.2069    0.0000 </r>
       <r>   -0.1195    0.0000 </r>
       <r>   -0.0374    0.0000 </r>
       <r>    0.0924    0.0000 </r>
       <r>    0.9335    0.0000 </r>
       <r>    1.0537    0.0000 </r>
       <r>    1.0906    0.0000 </r>
       <r>    1.2094    0.0000 </r>
       <r>    1.2470    0.0000 </r>
       <r>    1.2949    0.0000 </r>
       <r>    1.3601    0.0000 </r>
       <r>    1.4665    0.0000 </r>
       <r>    1.4904    0.0000 </r>
       <r>    1.5108    0.0000 </r>
       <r>    1.5327    0.0000 </r>
       <r>    1.5557    0.0000 </r>
      </set>
     </set>
    </set>
   </array>
  </eigenvalues>
  <separator name="orbital magnetization" >
   <v name="MAGDIPOLOUT">      0.00000000      0.00000000      0.00000000</v>
  </separator>
 </calculation>
 <structure name="finalpos" >
  <crystal>
   <varray name="basis" >
    <v>      16.00000000       0.00000000       0.00000000 </v>
    <v>       0.00000000      16.00000000       0.00000000 </v>
    <v>       0.00000000       0.00000000      16.00000000 </v>
   </varray>
   <i name="volume">   4096.00000000 </i>
   <varray name="rec_basis" >
    <v>       0.06250000       0.00000000       0.00000000 </v>
    <v>       0.00000000       0.06250000       0.00000000 </v>
    <v>       0.00000000       0.00000000       0.06250000 </v>
   </varray>
  </crystal>
  <varray name="positions" >
   <v>       0.24247978       0.46573283       0.39365349 </v>
   <v>       0.47664541       0.46999909       0.67704861 </v>
   <v>       0.56538769       0.67634940       0.38372195 </v>
   <v>       0.57281945       0.26568590       0.38503701 </v>
   <v>       0.33785707       0.46770600       0.62347069 </v>
   <v>       0.65955942       0.62042020       0.49149591 </v>
   <v>       0.66480653       0.32538925       0.49240632 </v>
   <v>       0.32703665       0.57348503       0.34491206 </v>
   <v>       0.33138773       0.36130754       0.34517603 </v>
   <v>       0.40247886       0.46811667       0.25211786 </v>
   <v>       0.53754064       0.26433651       0.53137975 </v>
   <v>       0.53038137       0.67696055       0.53047939 </v>
   <v>       0.65783459       0.54885286       0.35873524 </v>
   <v>       0.65941410       0.39583658       0.35887709 </v>
   <v>       0.42271665       0.59519992       0.59463431 </v>
   <v>       0.42697406       0.34314041       0.59459216 </v>
   <v>       0.46809462       0.59446784       0.30772175 </v>
   <v>       0.47352096       0.34520915       0.30883782 </v>
   <v>       0.42731533       0.30113580       0.44396714 </v>
   <v>       0.42156474       0.63599450       0.44346745 </v>
   <v>       0.32012594       0.54283501       0.49415444 </v>
   <v>       0.32335598       0.39201503       0.49410883 </v>
   <v>       0.54425481       0.47144986       0.30677440 </v>
   <v>       0.57235442       0.54656510       0.58994479 </v>
   <v>       0.57466026       0.39617685       0.59026382 </v>
   <v>       0.65986728       0.47272868       0.48954531 </v>
   <v>       0.45228984       0.46977352       0.53476535 </v>
   <v>       0.53667010       0.54754163       0.44024319 </v>
   <v>       0.53884942       0.39385554       0.44086326 </v>
   <v>       0.41253972       0.46916144       0.39378777 </v>
   <v>       0.48636133       0.74432214       0.75008272 </v>
   <v>       0.49951565       0.77624863       0.78198959 </v>
  </varray>
 </structure>
</modeling>
