unknown system                          
           1
    16.000000    0.000000    0.000000
     0.000000   16.000000    0.000000
     0.000000    0.000000   16.000000
   Ni   H 
    30     2
Direct configuration=     1
   0.24204812  0.46574375  0.39358062
   0.47664750  0.46996062  0.67724500
   0.56549250  0.67648500  0.38362437
   0.57311312  0.26554500  0.38499375
   0.33768562  0.46766813  0.62356500
   0.65978875  0.62061375  0.49154062
   0.66524938  0.32527375  0.49257937
   0.32675000  0.57369062  0.34481625
   0.33114375  0.36122812  0.34507188
   0.40257313  0.46809063  0.25190625
   0.53750625  0.26414000  0.53140812
   0.53031438  0.67711438  0.53047625
   0.65811125  0.54895063  0.35866813
   0.65967312  0.39560375  0.35880750
   0.42268937  0.59525687  0.59476000
   0.42683313  0.34299625  0.59471812
   0.46809750  0.59455000  0.30764875
   0.47352250  0.34516125  0.30878812
   0.42711875  0.30087688  0.44386313
   0.42129875  0.63628937  0.44334312
   0.31992125  0.54301125  0.49424562
   0.32328812  0.39197125  0.49426000
   0.54435625  0.47145750  0.30680125
   0.57267187  0.54664000  0.59011250
   0.57482875  0.39594625  0.59044750
   0.66008312  0.47271500  0.48947438
   0.45226000  0.46980438  0.53473625
   0.53660750  0.54776313  0.44005500
   0.53881625  0.39369375  0.44078812
   0.41230875  0.46914563  0.39380312
   0.48638649  0.74459986  0.75035727
   0.49947518  0.77601271  0.78177012
Direct configuration=     2
   0.24230000  0.46574076  0.39363620
   0.47664704  0.46997794  0.67709076
   0.56544398  0.67641888  0.38367967
   0.57296908  0.26563623  0.38503389
   0.33780231  0.46769107  0.62350720
   0.65963999  0.62050104  0.49150987
   0.66498951  0.32533936  0.49248947
   0.32691147  0.57354800  0.34487934
   0.33127524  0.36130196  0.34514051
   0.40253860  0.46810704  0.25205512
   0.53753639  0.26426892  0.53136775
   0.53035255  0.67700475  0.53045727
   0.65795505  0.54888975  0.35872408
   0.65952015  0.39572695  0.35886876
   0.42272043  0.59520264  0.59468142
   0.42692291  0.34310095  0.59463756
   0.46807292  0.59449927  0.30769028
   0.47351442  0.34518806  0.30882804
   0.42722931  0.30100884  0.44391482
   0.42144132  0.63614194  0.44340877
   0.32002045  0.54290585  0.49418051
   0.32331079  0.39201113  0.49415473
   0.54431508  0.47145016  0.30680155
   0.57248644  0.54657632  0.58999408
   0.57471983  0.39608251  0.59032466
   0.65993510  0.47272156  0.48949748
   0.45230035  0.46978565  0.53483294
   0.53666560  0.54764284  0.44018556
   0.53887363  0.39376595  0.44084950
   0.41238153  0.46916681  0.39373002
   0.48608764  0.74378954  0.74954778
   0.49978133  0.77680679  0.78255591
Direct configuration=     3
   0.24234407  0.46573883  0.39364181
   0.47664695  0.46998348  0.67706993
   0.56543044  0.67640196  0.38368959
   0.57293080  0.26564995  0.38503521
   0.33781609  0.46769532  0.62349723
   0.65961734  0.62047815  0.49150736
   0.66494110  0.32535270  0.49246912
   0.32694239  0.57353171  0.34488789
   0.33130332  0.36130341  0.34515052
   0.40252424  0.46810992  0.25207491
   0.53753762  0.26429180  0.53136890
   0.53035995  0.67698824  0.53046153
   0.65792665  0.54887963  0.35872448
   0.65949612  0.39575594  0.35886830
   0.42271977  0.59520323  0.59466858
   0.42693697  0.34310928  0.59462580
   0.46807746  0.59448994  0.30770112
   0.47351544  0.34519560  0.30883558
   0.42725189  0.30104343  0.44392956
   0.42147342  0.63610210  0.44342472
   0.32004849  0.54288640  0.49417341
   0.32332319  0.39201364  0.49414165
   0.54430053  0.47145015  0.30679864
   0.57245019  0.54657142  0.58997763
   0.57470343  0.39610849  0.59030569
   0.65991545  0.47272330  0.48951018
   0.45229877  0.46978146  0.53480771
   0.53666540  0.54761401  0.44020419
   0.53886584  0.39379125  0.44085659
   0.41242587  0.46916598  0.39375196
   0.48633039  0.74434113  0.75010017
   0.49954082  0.77624761  0.78199559
Direct configuration=     4
   0.24247978  0.46573283  0.39365349
   0.47664541  0.46999909  0.67704861
   0.56538769  0.67634940  0.38372195
   0.57281945  0.26568590  0.38503701
   0.33785707  0.46770600  0.62347069
   0.65955942  0.62042020  0.49149591
   0.66480653  0.32538925  0.49240632
   0.32703665  0.57348503  0.34491206
   0.33138773  0.36130754  0.34517603
   0.40247886  0.46811667  0.25211786
   0.53754064  0.26433651  0.53137975
   0.53038137  0.67696055  0.53047939
   0.65783459  0.54885286  0.35873524
   0.65941410  0.39583658  0.35887709
   0.42271665  0.59519992  0.59463431
   0.42697406  0.34314041  0.59459216
   0.46809462  0.59446784  0.30772175
   0.47352096  0.34520915  0.30883782
   0.42731533  0.30113580  0.44396714
   0.42156474  0.63599450  0.44346745
   0.32012594  0.54283501  0.49415444
   0.32335598  0.39201503  0.49410883
   0.54425481  0.47144986  0.30677440
   0.57235442  0.54656510  0.58994479
   0.57466026  0.39617685  0.59026382
   0.65986728  0.47272868  0.48954531
   0.45228984  0.46977352  0.53476535
   0.53667010  0.54754163  0.44024319
   0.53884942  0.39385554  0.44086326
   0.41253972  0.46916144  0.39378777
   0.48636133  0.74432214  0.75008272
   0.49951565  0.77624863  0.78198959
