unknown system                          
           1
    16.000000    0.000000    0.000000
     0.000000   16.000000    0.000000
     0.000000    0.000000   16.000000
   Ni   H 
    30     2
Direct configuration=     1
   0.24204812  0.46574375  0.39358062
   0.47664750  0.46996062  0.67724500
   0.56549250  0.67648500  0.38362437
   0.57311312  0.26554500  0.38499375
   0.33768562  0.46766813  0.62356500
   0.65978875  0.62061375  0.49154062
   0.66524938  0.32527375  0.49257937
   0.32675000  0.57369062  0.34481625
   0.33114375  0.36122812  0.34507188
   0.40257313  0.46809063  0.25190625
   0.53750625  0.26414000  0.53140812
   0.53031438  0.67711438  0.53047625
   0.65811125  0.54895063  0.35866813
   0.65967312  0.39560375  0.35880750
   0.42268937  0.59525687  0.59476000
   0.42683313  0.34299625  0.59471812
   0.46809750  0.59455000  0.30764875
   0.47352250  0.34516125  0.30878812
   0.42711875  0.30087688  0.44386313
   0.42129875  0.63628937  0.44334312
   0.31992125  0.54301125  0.49424562
   0.32328812  0.39197125  0.49426000
   0.54435625  0.47145750  0.30680125
   0.57267187  0.54664000  0.59011250
   0.57482875  0.39594625  0.59044750
   0.66008312  0.47271500  0.48947438
   0.45226000  0.46980438  0.53473625
   0.53660750  0.54776313  0.44005500
   0.53881625  0.39369375  0.44078812
   0.41230875  0.46914563  0.39380312
   0.50195125  0.62468188  0.61289375
   0.48527562  0.58933437  0.63770000
Direct configuration=     2
   0.24219518  0.46549339  0.39348300
   0.47605275  0.46858151  0.67731040
   0.56554513  0.67640327  0.38395270
   0.57299893  0.26562580  0.38506355
   0.33746311  0.46751886  0.62334590
   0.66003458  0.62053128  0.49111002
   0.66498193  0.32524520  0.49241762
   0.32687983  0.57363798  0.34488723
   0.33130494  0.36129337  0.34505377
   0.40263985  0.46801839  0.25207554
   0.53741796  0.26435973  0.53138195
   0.53157072  0.67960928  0.52688458
   0.65795937  0.54884021  0.35864881
   0.65953102  0.39581520  0.35875924
   0.39641563  0.59502740  0.58155286
   0.42704855  0.34328515  0.59493404
   0.46815464  0.59441050  0.30768808
   0.47348434  0.34509571  0.30878854
   0.42733943  0.30082346  0.44365087
   0.42113830  0.63609373  0.44265447
   0.31989714  0.54274262  0.49423965
   0.32319618  0.39221118  0.49426308
   0.54440585  0.47148843  0.30660602
   0.57612324  0.54434400  0.58909274
   0.57487529  0.39576701  0.59021114
   0.65970999  0.47291677  0.48972691
   0.45212360  0.46849262  0.53408426
   0.53672060  0.54762874  0.43987033
   0.53882802  0.39368200  0.44075658
   0.41225394  0.46919837  0.39392444
   0.51337127  0.64130527  0.60886069
   0.49636430  0.57591669  0.66144286
Direct configuration=     3
   0.24194438  0.46543063  0.39333263
   0.47589092  0.46990763  0.67667035
   0.56578389  0.67632499  0.38332513
   0.57294805  0.26564703  0.38508782
   0.33667032  0.46640193  0.62354205
   0.66039904  0.62054681  0.49053077
   0.66486334  0.32521014  0.49222979
   0.32691141  0.57344329  0.34481273
   0.33153952  0.36133605  0.34504271
   0.40260960  0.46798373  0.25220183
   0.53726352  0.26438556  0.53144501
   0.53115050  0.67995132  0.52558511
   0.65793581  0.54867932  0.35859098
   0.65951393  0.39591581  0.35865823
   0.40365106  0.59847229  0.58781914
   0.42701924  0.34303918  0.59510874
   0.46818279  0.59446050  0.30749270
   0.47350655  0.34507846  0.30875650
   0.42741467  0.30078427  0.44349707
   0.42131531  0.63627207  0.44144289
   0.31544266  0.53981804  0.48931096
   0.32313421  0.39215909  0.49423441
   0.54446967  0.47138744  0.30647075
   0.57418210  0.54616440  0.59032524
   0.57494931  0.39552272  0.59004313
   0.65976825  0.47273134  0.48963280
   0.45237681  0.46935904  0.53456001
   0.53654412  0.54763131  0.43995906
   0.53886900  0.39367980  0.44065876
   0.41231710  0.46907529  0.39368024
   0.51288547  0.64077774  0.61097972
   0.49657308  0.57382593  0.66169462
Direct configuration=     4
   0.24104628  0.46469805  0.39234256
   0.47542653  0.47050498  0.67640922
   0.56606192  0.67625718  0.38266264
   0.57291175  0.26558590  0.38506478
   0.33640979  0.46639650  0.62290946
   0.66054981  0.62043003  0.49012049
   0.66480160  0.32512744  0.49205509
   0.32691512  0.57347184  0.34411215
   0.33162494  0.36129715  0.34498527
   0.40262015  0.46792507  0.25221439
   0.53714357  0.26438776  0.53148426
   0.53067607  0.67998126  0.52512022
   0.65789825  0.54855843  0.35848236
   0.65952222  0.39602021  0.35854841
   0.40707080  0.59789138  0.58878353
   0.42703183  0.34307046  0.59513950
   0.46824758  0.59437832  0.30713169
   0.47356766  0.34505748  0.30873906
   0.42747166  0.30076489  0.44343152
   0.42086357  0.63587709  0.44137048
   0.31635606  0.54077183  0.49070282
   0.32324283  0.39161985  0.49441121
   0.54447300  0.47140376  0.30632695
   0.57304715  0.54763055  0.59082272
   0.57490443  0.39560593  0.58991237
   0.65956381  0.47284814  0.48978881
   0.45180227  0.47028584  0.53479898
   0.53655113  0.54758324  0.44000756
   0.53877502  0.39376687  0.44065608
   0.41258612  0.46904601  0.39378186
   0.51248448  0.64113816  0.61200899
   0.49637821  0.57202152  0.66239645
Direct configuration=     5
   0.24069659  0.46406805  0.39150068
   0.47442582  0.47071239  0.67639137
   0.56650926  0.67594581  0.38155607
   0.57280981  0.26552711  0.38508188
   0.33574757  0.46645129  0.62207498
   0.66054063  0.62033364  0.48945429
   0.66464398  0.32507238  0.49171455
   0.32677746  0.57286862  0.34345112
   0.33179745  0.36128528  0.34494187
   0.40260838  0.46778964  0.25222095
   0.53695777  0.26443591  0.53156388
   0.52997355  0.67997405  0.52425119
   0.65780875  0.54832291  0.35825442
   0.65945770  0.39624685  0.35843001
   0.41349777  0.59738454  0.59104923
   0.42716869  0.34337214  0.59504420
   0.46837665  0.59425663  0.30660133
   0.47375708  0.34499908  0.30869811
   0.42759796  0.30068741  0.44331204
   0.42020241  0.63520812  0.44102703
   0.31718692  0.54153585  0.49175017
   0.32320445  0.39128605  0.49413374
   0.54449915  0.47137557  0.30605934
   0.57156338  0.54989442  0.59127330
   0.57454670  0.39620170  0.58962860
   0.65894269  0.47309726  0.49022476
   0.45139481  0.47078770  0.53452784
   0.53663252  0.54765034  0.43994103
   0.53850334  0.39398094  0.44079582
   0.41249416  0.46915052  0.39391109
   0.51183641  0.64260247  0.61350791
   0.49586582  0.56889843  0.66434906
Direct configuration=     6
   0.24101136  0.46387885  0.39133357
   0.47330032  0.46931877  0.67665537
   0.56689768  0.67563653  0.38060902
   0.57268031  0.26553370  0.38516660
   0.33534085  0.46675169  0.62145579
   0.66034070  0.62050799  0.48895847
   0.66439866  0.32521611  0.49148812
   0.32652943  0.57216553  0.34308048
   0.33199878  0.36112474  0.34477700
   0.40261374  0.46759909  0.25221048
   0.53688301  0.26457417  0.53168609
   0.52973475  0.68022435  0.52309324
   0.65779827  0.54810808  0.35798242
   0.65923597  0.39648962  0.35851822
   0.41813494  0.59710025  0.59307539
   0.42716019  0.34359766  0.59484476
   0.46839344  0.59411697  0.30620859
   0.47396190  0.34495161  0.30869257
   0.42764973  0.30055062  0.44322301
   0.41986753  0.63467590  0.44067936
   0.31773884  0.54185455  0.49231806
   0.32306069  0.39137741  0.49363260
   0.54444074  0.47132531  0.30585434
   0.57103119  0.55105875  0.59143241
   0.57403782  0.39702762  0.58943246
   0.65832942  0.47337130  0.49065429
   0.45133068  0.47029339  0.53407261
   0.53657717  0.54772601  0.43959706
   0.53835886  0.39399162  0.44057320
   0.41232865  0.46930092  0.39374920
   0.51148669  0.64518219  0.61465959
   0.49537332  0.56677185  0.66700749
Direct configuration=     7
   0.24144138  0.46381101  0.39147013
   0.47244777  0.46745183  0.67682211
   0.56730029  0.67541643  0.37960143
   0.57258237  0.26539154  0.38522963
   0.33514145  0.46717727  0.62098480
   0.66006256  0.62076332  0.48848870
   0.66414737  0.32551698  0.49147477
   0.32626556  0.57170770  0.34278493
   0.33215433  0.36079385  0.34442802
   0.40259144  0.46734117  0.25202284
   0.53685371  0.26485788  0.53184119
   0.52977173  0.68049979  0.52220494
   0.65789719  0.54792939  0.35768955
   0.65905609  0.39671867  0.35863973
   0.42107248  0.59663449  0.59464907
   0.42685603  0.34338428  0.59462411
   0.46825540  0.59397129  0.30586086
   0.47409950  0.34485678  0.30863903
   0.42761547  0.30039009  0.44316644
   0.41969070  0.63427749  0.44044920
   0.31838241  0.54208848  0.49281433
   0.32296886  0.39156773  0.49315901
   0.54439788  0.47132463  0.30560208
   0.57070721  0.55148549  0.59185632
   0.57358829  0.39766443  0.58932227
   0.65778924  0.47376934  0.49091080
   0.45133099  0.46998092  0.53371957
   0.53645636  0.54763573  0.43928673
   0.53823937  0.39397023  0.44014540
   0.41229279  0.46934083  0.39354983
   0.51150322  0.64852032  0.61544530
   0.49506619  0.56516374  0.66983875
Direct configuration=     8
   0.24191178  0.46370037  0.39168313
   0.47175406  0.46551101  0.67694116
   0.56774998  0.67507293  0.37835524
   0.57247863  0.26512480  0.38532885
   0.33501171  0.46761762  0.62051271
   0.65968739  0.62104329  0.48788927
   0.66382296  0.32600898  0.49156687
   0.32599926  0.57135872  0.34246847
   0.33230271  0.36039102  0.34392886
   0.40254461  0.46697792  0.25172774
   0.53679543  0.26523459  0.53201251
   0.52983483  0.68057652  0.52140153
   0.65803618  0.54774877  0.35735070
   0.65893249  0.39695170  0.35875766
   0.42392598  0.59617933  0.59647719
   0.42623946  0.34289721  0.59426584
   0.46797011  0.59380166  0.30544090
   0.47425752  0.34466913  0.30851638
   0.42754403  0.30016134  0.44307161
   0.41964901  0.63391516  0.44024911
   0.31921886  0.54244707  0.49335676
   0.32298162  0.39174244  0.49267672
   0.54436367  0.47139179  0.30517805
   0.57026781  0.55186432  0.59262197
   0.57310289  0.39818942  0.58917886
   0.65719946  0.47430481  0.49110508
   0.45135346  0.46971403  0.53344849
   0.53639556  0.54762309  0.43896345
   0.53805702  0.39389809  0.43964030
   0.41225289  0.46924132  0.39317534
   0.51155820  0.65289031  0.61620012
   0.49482607  0.56315436  0.67323098
Direct configuration=     9
   0.24215272  0.46363537  0.39182911
   0.47162568  0.46466355  0.67698682
   0.56792749  0.67483361  0.37770047
   0.57244351  0.26492524  0.38542240
   0.33503752  0.46775505  0.62039070
   0.65949963  0.62116457  0.48757588
   0.66365970  0.32636114  0.49167430
   0.32590898  0.57131510  0.34238802
   0.33231693  0.36017399  0.34361391
   0.40249828  0.46674010  0.25149275
   0.53673298  0.26541495  0.53207688
   0.52987767  0.68042791  0.52117468
   0.65813482  0.54767463  0.35715634
   0.65891655  0.39703109  0.35880320
   0.42481049  0.59617224  0.59745458
   0.42572452  0.34252388  0.59398278
   0.46771316  0.59370736  0.30521962
   0.47437170  0.34451538  0.30840658
   0.42749087  0.29999612  0.44295213
   0.41976240  0.63384420  0.44016277
   0.31967049  0.54264717  0.49351619
   0.32309144  0.39183021  0.49247245
   0.54436429  0.47146397  0.30488972
   0.57023475  0.55190683  0.59311946
   0.57287202  0.39829964  0.58908638
   0.65692139  0.47459896  0.49114467
   0.45139975  0.46966054  0.53336380
   0.53638005  0.54757090  0.43883107
   0.53793320  0.39386421  0.43936997
   0.41225509  0.46911255  0.39294989
   0.51145186  0.65545577  0.61648922
   0.49484567  0.56211686  0.67502514
Direct configuration=    10
   0.24247469  0.46357780  0.39200232
   0.47164214  0.46381203  0.67701755
   0.56804311  0.67450337  0.37698283
   0.57243651  0.26464848  0.38558824
   0.33515748  0.46783476  0.62034084
   0.65929121  0.62125021  0.48721415
   0.66348841  0.32681364  0.49181177
   0.32583620  0.57136458  0.34238568
   0.33228284  0.35990643  0.34320760
   0.40243941  0.46643181  0.25118110
   0.53663069  0.26548840  0.53215960
   0.52995158  0.68013611  0.52106136
   0.65825164  0.54758801  0.35692714
   0.65887032  0.39711311  0.35889344
   0.42557332  0.59628722  0.59858067
   0.42504082  0.34210252  0.59355830
   0.46735069  0.59358071  0.30494151
   0.47455812  0.34433111  0.30825366
   0.42744032  0.29975072  0.44270926
   0.41997271  0.63388682  0.44004965
   0.32017696  0.54289225  0.49363008
   0.32327719  0.39193058  0.49226469
   0.54435323  0.47156148  0.30452814
   0.57031311  0.55182426  0.59369419
   0.57259429  0.39832979  0.58892653
   0.65664331  0.47489506  0.49115345
   0.45147969  0.46976325  0.53339835
   0.53636584  0.54744876  0.43864656
   0.53777388  0.39378652  0.43904772
   0.41227115  0.46893290  0.39265207
   0.51100961  0.65866766  0.61680653
   0.49503516  0.56096278  0.67710690
Direct configuration=    11
   0.24260072  0.46357577  0.39204261
   0.47177124  0.46366383  0.67703343
   0.56798795  0.67433610  0.37683400
   0.57244698  0.26454573  0.38568269
   0.33526412  0.46779667  0.62038599
   0.65930435  0.62126203  0.48712554
   0.66342984  0.32692921  0.49185864
   0.32585025  0.57143117  0.34247064
   0.33226831  0.35983780  0.34308214
   0.40240975  0.46630500  0.25108693
   0.53655872  0.26547664  0.53214555
   0.52999023  0.67992446  0.52115479
   0.65829313  0.54756652  0.35683268
   0.65885800  0.39710404  0.35889084
   0.42566948  0.59642702  0.59895008
   0.42480321  0.34202238  0.59336815
   0.46718375  0.59351752  0.30483571
   0.47465274  0.34426291  0.30817730
   0.42743162  0.29962586  0.44254249
   0.42011271  0.63396444  0.44000642
   0.32035455  0.54293909  0.49362833
   0.32340662  0.39198835  0.49219214
   0.54433944  0.47160859  0.30439877
   0.57038894  0.55169480  0.59384702
   0.57249503  0.39825191  0.58887358
   0.65658563  0.47495138  0.49113833
   0.45151898  0.46993220  0.53344399
   0.53635896  0.54736126  0.43859842
   0.53767564  0.39375646  0.43897201
   0.41228971  0.46885632  0.39256730
   0.51048686  0.65980224  0.61688911
   0.49523817  0.56068542  0.67766626
Direct configuration=    12
   0.24266003  0.46358402  0.39204247
   0.47193794  0.46363296  0.67703843
   0.56789139  0.67418104  0.37680474
   0.57245277  0.26446469  0.38577622
   0.33538151  0.46772723  0.62045109
   0.65939467  0.62123892  0.48708137
   0.66334734  0.32697804  0.49188312
   0.32586595  0.57151134  0.34257764
   0.33226413  0.35978806  0.34298908
   0.40237672  0.46618895  0.25104263
   0.53647633  0.26541103  0.53212346
   0.53005756  0.67975427  0.52131671
   0.65835273  0.54755722  0.35674931
   0.65881116  0.39708286  0.35888277
   0.42570241  0.59655322  0.59921445
   0.42466792  0.34202836  0.59317747
   0.46703544  0.59346014  0.30473754
   0.47474449  0.34421926  0.30813338
   0.42742140  0.29948794  0.44236519
   0.42024434  0.63404524  0.43997091
   0.32048440  0.54297690  0.49363966
   0.32355093  0.39203008  0.49212671
   0.54432712  0.47164632  0.30432105
   0.57048519  0.55151217  0.59390854
   0.57240289  0.39814483  0.58881598
   0.65657984  0.47495154  0.49110498
   0.45155238  0.47012565  0.53347063
   0.53638628  0.54727147  0.43855403
   0.53758090  0.39372719  0.43894301
   0.41232273  0.46879378  0.39251502
   0.50975103  0.66076006  0.61696858
   0.49551570  0.56056835  0.67799569
Direct configuration=    13
   0.24267690  0.46358807  0.39204336
   0.47196854  0.46363240  0.67703819
   0.56786870  0.67414978  0.37680994
   0.57245527  0.26444839  0.38579173
   0.33540950  0.46771670  0.62045953
   0.65940635  0.62122884  0.48707512
   0.66333845  0.32697832  0.49188712
   0.32586969  0.57152606  0.34259997
   0.33226129  0.35977775  0.34296914
   0.40236840  0.46616871  0.25103435
   0.53645849  0.26539775  0.53211920
   0.53007518  0.67970889  0.52134679
   0.65835960  0.54755160  0.35673759
   0.65880398  0.39707719  0.35887799
   0.42570837  0.59658105  0.59926769
   0.42465243  0.34203403  0.59314620
   0.46700919  0.59345228  0.30471521
   0.47476496  0.34421186  0.30811675
   0.42741970  0.29946047  0.44233172
   0.42027489  0.63405621  0.43996722
   0.32050742  0.54298581  0.49364704
   0.32357606  0.39203907  0.49211201
   0.54432492  0.47165626  0.30430834
   0.57050063  0.55147380  0.59390805
   0.57238894  0.39812247  0.58880607
   0.65657629  0.47494668  0.49109466
   0.45156275  0.47016714  0.53347996
   0.53639502  0.54725173  0.43854840
   0.53756422  0.39371880  0.43894244
   0.41232605  0.46878700  0.39250128
   0.50957601  0.66094798  0.61699494
   0.49557744  0.56056003  0.67804391
Direct configuration=    14
   0.24273154  0.46359973  0.39202948
   0.47197339  0.46370145  0.67709118
   0.56784472  0.67417943  0.37689126
   0.57246547  0.26445466  0.38575608
   0.33537221  0.46771830  0.62049055
   0.65942494  0.62121324  0.48709915
   0.66335285  0.32692429  0.49184889
   0.32588160  0.57152344  0.34261661
   0.33230570  0.35982193  0.34301359
   0.40238591  0.46618151  0.25106997
   0.53646136  0.26535966  0.53209547
   0.53009441  0.67970865  0.52136426
   0.65832034  0.54754617  0.35676888
   0.65875944  0.39705501  0.35888654
   0.42566084  0.59654062  0.59918128
   0.42473650  0.34211402  0.59316420
   0.46703290  0.59342157  0.30477444
   0.47477509  0.34421892  0.30810888
   0.42742507  0.29944935  0.44232200
   0.42026678  0.63406741  0.43998667
   0.32047181  0.54298263  0.49364659
   0.32356143  0.39203506  0.49211482
   0.54432382  0.47163028  0.30431894
   0.57048666  0.55147638  0.59384333
   0.57243090  0.39811043  0.58881193
   0.65660962  0.47490689  0.49108337
   0.45154357  0.47015767  0.53345798
   0.53642269  0.54725995  0.43855712
   0.53756787  0.39369671  0.43895461
   0.41233465  0.46879515  0.39254902
   0.50936141  0.66090521  0.61697349
   0.49564014  0.56064740  0.67785130
Direct configuration=    15
   0.24276784  0.46360604  0.39202324
   0.47199164  0.46372936  0.67711177
   0.56782238  0.67418625  0.37692359
   0.57247374  0.26444232  0.38574407
   0.33537512  0.46771595  0.62050701
   0.65944178  0.62120416  0.48710683
   0.66335512  0.32690064  0.49183233
   0.32589344  0.57153473  0.34263660
   0.33232788  0.35983133  0.34302007
   0.40238960  0.46617440  0.25108308
   0.53645155  0.26532290  0.53208888
   0.53011272  0.67968469  0.52139335
   0.65830265  0.54754204  0.35677662
   0.65872803  0.39704225  0.35889262
   0.42564642  0.59653558  0.59917526
   0.42476813  0.34215749  0.59314545
   0.46703128  0.59340257  0.30479653
   0.47479124  0.34421329  0.30809222
   0.42742411  0.29942617  0.44229981
   0.42028256  0.63408247  0.43999598
   0.32047506  0.54298526  0.49365388
   0.32357063  0.39203181  0.49211536
   0.54432026  0.47162046  0.30431323
   0.57048718  0.55145436  0.59381522
   0.57243957  0.39809319  0.58880716
   0.65662593  0.47488884  0.49107427
   0.45153973  0.47017254  0.53346023
   0.53643632  0.54724994  0.43855636
   0.53755279  0.39367915  0.43896147
   0.41234668  0.46879504  0.39255937
   0.50914737  0.66101520  0.61697492
   0.49570686  0.56068272  0.67778510
Direct configuration=    16
   0.24286697  0.46362758  0.39199364
   0.47207190  0.46379593  0.67719054
   0.56774522  0.67417357  0.37703327
   0.57249598  0.26440908  0.38571878
   0.33538447  0.46769593  0.62057888
   0.65948858  0.62114812  0.48711744
   0.66334234  0.32682176  0.49178380
   0.32592631  0.57158131  0.34270584
   0.33239769  0.35985287  0.34302739
   0.40239379  0.46614459  0.25110882
   0.53642391  0.26525741  0.53203241
   0.53016997  0.67960656  0.52151317
   0.65827382  0.54752516  0.35676974
   0.65865353  0.39697840  0.35887966
   0.42561602  0.59652734  0.59918431
   0.42485548  0.34225754  0.59310702
   0.46701312  0.59333585  0.30485645
   0.47485539  0.34419896  0.30806692
   0.42742207  0.29932906  0.44221857
   0.42033548  0.63412915  0.44002330
   0.32048502  0.54300708  0.49367708
   0.32363345  0.39204769  0.49209823
   0.54432315  0.47158963  0.30428223
   0.57052184  0.55134661  0.59374725
   0.57246713  0.39802379  0.58879964
   0.65668135  0.47481456  0.49105011
   0.45154781  0.47022974  0.53346006
   0.53648334  0.54720435  0.43855863
   0.53751477  0.39362213  0.43898617
   0.41238209  0.46879511  0.39259036
   0.50826825  0.66155435  0.61698217
   0.49598538  0.56077190  0.67757998
Direct configuration=    17
   0.24277274  0.46360516  0.39202670
   0.47201207  0.46371533  0.67715495
   0.56781321  0.67416833  0.37690605
   0.57246867  0.26446446  0.38577204
   0.33536645  0.46770385  0.62052945
   0.65945597  0.62122479  0.48709686
   0.66334438  0.32692874  0.49183237
   0.32589903  0.57152100  0.34265905
   0.33231094  0.35982223  0.34299761
   0.40238850  0.46614921  0.25106970
   0.53643187  0.26530920  0.53209768
   0.53013563  0.67965102  0.52136096
   0.65830341  0.54754682  0.35677675
   0.65872172  0.39705486  0.35890429
   0.42566586  0.59654300  0.59920009
   0.42473822  0.34219353  0.59309865
   0.46700071  0.59337981  0.30479745
   0.47479530  0.34422005  0.30808805
   0.42741650  0.29941705  0.44227129
   0.42030323  0.63409488  0.43997540
   0.32050857  0.54297347  0.49363953
   0.32355485  0.39201722  0.49210732
   0.54432242  0.47163231  0.30430473
   0.57047704  0.55147566  0.59384303
   0.57242766  0.39808914  0.58880484
   0.65662795  0.47491618  0.49107910
   0.45154494  0.47019938  0.53344778
   0.53644287  0.54725121  0.43855013
   0.53754497  0.39367773  0.43894158
   0.41234054  0.46877390  0.39255467
   0.50917646  0.66100252  0.61699540
   0.49571295  0.56068110  0.67783839
Direct configuration=    18
   0.24265799  0.46358069  0.39207033
   0.47193543  0.46364490  0.67715993
   0.56787151  0.67416021  0.37672903
   0.57243020  0.26456864  0.38585305
   0.33532741  0.46770031  0.62049047
   0.65944310  0.62134887  0.48706655
   0.66333315  0.32707844  0.49188988
   0.32586570  0.57142801  0.34262703
   0.33219739  0.35979018  0.34294498
   0.40238954  0.46613274  0.25102722
   0.53640993  0.26536812  0.53218393
   0.53013708  0.67968660  0.52114529
   0.65832682  0.54759220  0.35678919
   0.65878819  0.39716496  0.35895246
   0.42569807  0.59650112  0.59918787
   0.42458467  0.34219701  0.59304157
   0.46695458  0.59340694  0.30472649
   0.47472623  0.34425576  0.30810560
   0.42740046  0.29952380  0.44230873
   0.42024988  0.63408834  0.43989118
   0.32056658  0.54291911  0.49359618
   0.32342013  0.39197411  0.49212411
   0.54432517  0.47169128  0.30432542
   0.57039403  0.55170996  0.59399193
   0.57236264  0.39818338  0.58879426
   0.65657110  0.47507138  0.49114102
   0.45152659  0.47019245  0.53343538
   0.53639978  0.54730777  0.43854094
   0.53756845  0.39375866  0.43888943
   0.41230397  0.46870968  0.39252742
   0.51052577  0.66008235  0.61698575
   0.49533411  0.56058519  0.67817928
Direct configuration=    19
   0.24252308  0.46355284  0.39212282
   0.47186526  0.46354585  0.67708432
   0.56792237  0.67411600  0.37651484
   0.57239694  0.26462589  0.38594808
   0.33533698  0.46769295  0.62043224
   0.65940357  0.62143980  0.48701505
   0.66331197  0.32723934  0.49198583
   0.32581734  0.57135926  0.34258486
   0.33206786  0.35973322  0.34286732
   0.40237149  0.46611455  0.25097019
   0.53638422  0.26546599  0.53226800
   0.53011468  0.67971664  0.52097719
   0.65837192  0.54762916  0.35677850
   0.65889824  0.39727410  0.35897746
   0.42573184  0.59653210  0.59926219
   0.42438765  0.34210303  0.59300103
   0.46689501  0.59347380  0.30457569
   0.47466875  0.34427308  0.30810944
   0.42738192  0.29961412  0.44234245
   0.42021669  0.63407194  0.43980389
   0.32063035  0.54289413  0.49357492
   0.32333414  0.39196843  0.49211668
   0.54432535  0.47177286  0.30433369
   0.57034697  0.55189279  0.59416783
   0.57226703  0.39828044  0.58876924
   0.65647578  0.47522625  0.49120120
   0.45153091  0.47021811  0.53345652
   0.53633703  0.54734807  0.43852593
   0.53758410  0.39385354  0.43885713
   0.41226996  0.46864950  0.39245821
   0.51189780  0.65929041  0.61698635
   0.49495842  0.56043492  0.67865280
Direct configuration=    20
   0.24251077  0.46354830  0.39213381
   0.47185852  0.46353264  0.67707410
   0.56791729  0.67409947  0.37647949
   0.57239273  0.26463090  0.38596794
   0.33534159  0.46768993  0.62042591
   0.65941007  0.62145663  0.48700485
   0.66330014  0.32726697  0.49200480
   0.32580856  0.57134459  0.34258655
   0.33205022  0.35972707  0.34285311
   0.40236207  0.46610415  0.25095285
   0.53637032  0.26547533  0.53228253
   0.53011337  0.67971276  0.52095610
   0.65838427  0.54763949  0.35677194
   0.65890598  0.39729615  0.35899020
   0.42573768  0.59654115  0.59928227
   0.42435530  0.34209912  0.59297896
   0.46687508  0.59347559  0.30454848
   0.47466420  0.34427369  0.30810110
   0.42737592  0.29962227  0.44233552
   0.42021228  0.63408145  0.43978768
   0.32064526  0.54289525  0.49357613
   0.32332076  0.39197049  0.49210517
   0.54432517  0.47178724  0.30432759
   0.57034360  0.55192475  0.59420982
   0.57224230  0.39830001  0.58875719
   0.65645861  0.47525649  0.49121587
   0.45153238  0.47023552  0.53345806
   0.53633101  0.54735550  0.43852017
   0.53757830  0.39386662  0.43885503
   0.41226386  0.46863053  0.39244433
   0.51213514  0.65914494  0.61698819
   0.49490287  0.56041811  0.67874614
Direct configuration=    21
   0.24248779  0.46354701  0.39213346
   0.47185531  0.46352142  0.67708123
   0.56791581  0.67408948  0.37645780
   0.57238837  0.26464550  0.38598036
   0.33534220  0.46768749  0.62041984
   0.65940915  0.62146456  0.48699622
   0.66329578  0.32728397  0.49201239
   0.32579831  0.57133724  0.34258265
   0.33203569  0.35972599  0.34284521
   0.40235958  0.46610112  0.25094945
   0.53636397  0.26549436  0.53228523
   0.53011126  0.67971053  0.52093694
   0.65838894  0.54764399  0.35676815
   0.65891332  0.39730736  0.35899325
   0.42574311  0.59654767  0.59928988
   0.42433791  0.34209816  0.59297264
   0.46686263  0.59347813  0.30453391
   0.47465753  0.34428254  0.30810842
   0.42737434  0.29963395  0.44233330
   0.42020950  0.63408088  0.43977541
   0.32064924  0.54289494  0.49357048
   0.32331162  0.39197353  0.49209524
   0.54432626  0.47179688  0.30433067
   0.57033692  0.55193961  0.59423048
   0.57223815  0.39830932  0.58876358
   0.65644764  0.47527209  0.49122334
   0.45153606  0.47024179  0.53345197
   0.53632838  0.54735786  0.43851861
   0.53758051  0.39387962  0.43885301
   0.41225557  0.46862287  0.39243950
   0.51230573  0.65902895  0.61698724
   0.49485903  0.56040431  0.67880202
Direct configuration=    22
   0.24255259  0.46355537  0.39212657
   0.47189946  0.46356525  0.67708268
   0.56785150  0.67407182  0.37650056
   0.57240759  0.26459739  0.38597125
   0.33537181  0.46767648  0.62044933
   0.65943604  0.62142410  0.48699538
   0.66328154  0.32724341  0.49200806
   0.32581159  0.57136457  0.34262338
   0.33207279  0.35973466  0.34284383
   0.40234480  0.46608154  0.25095073
   0.53633278  0.26544950  0.53226732
   0.53013119  0.67965952  0.52102769
   0.65837642  0.54763995  0.35676114
   0.65887347  0.39728572  0.35899840
   0.42571351  0.59658175  0.59932354
   0.42437960  0.34213488  0.59293863
   0.46684427  0.59345404  0.30453093
   0.47469660  0.34426335  0.30806734
   0.42736547  0.29957219  0.44227964
   0.42024506  0.63412147  0.43978863
   0.32065789  0.54292141  0.49360070
   0.32335531  0.39199271  0.49206786
   0.54432227  0.47179085  0.30430380
   0.57036991  0.55187680  0.59421720
   0.57222870  0.39828810  0.58874017
   0.65645759  0.47524294  0.49121832
   0.45154754  0.47029889  0.53346623
   0.53634779  0.54733473  0.43851339
   0.53754180  0.39385406  0.43888834
   0.41227657  0.46861281  0.39243535
   0.51193610  0.65925077  0.61698942
   0.49499610  0.56046207  0.67874607
Direct configuration=    23
   0.24252743  0.46354239  0.39217859
   0.47188628  0.46354823  0.67706890
   0.56774943  0.67399045  0.37631793
   0.57240835  0.26464522  0.38610118
   0.33536090  0.46763821  0.62047971
   0.65946066  0.62149549  0.48691878
   0.66326403  0.32735633  0.49211235
   0.32579096  0.57129009  0.34268292
   0.33199467  0.35969258  0.34274409
   0.40229795  0.46600789  0.25087976
   0.53622146  0.26539881  0.53237272
   0.53017471  0.67956749  0.52088020
   0.65837815  0.54768397  0.35675289
   0.65890771  0.39739048  0.35908428
   0.42569128  0.59668493  0.59945477
   0.42424601  0.34221577  0.59274497
   0.46671570  0.59343628  0.30438569
   0.47471414  0.34429024  0.30801706
   0.42730192  0.29953292  0.44218680
   0.42026895  0.63419952  0.43968620
   0.32076591  0.54294121  0.49362920
   0.32329871  0.39200460  0.49200355
   0.54433746  0.47187321  0.30424865
   0.57031682  0.55204782  0.59443250
   0.57211500  0.39838418  0.58866310
   0.65639931  0.47540681  0.49131187
   0.45154711  0.47046848  0.53347293
   0.53632072  0.54736682  0.43845419
   0.53749828  0.39387327  0.43888420
   0.41227679  0.46849422  0.39238038
   0.51296720  0.65845786  0.61703900
   0.49482162  0.56047734  0.67915249
Direct configuration=    24
   0.24264295  0.46353709  0.39223829
   0.47192524  0.46366556  0.67704654
   0.56751304  0.67389756  0.37616014
   0.57245855  0.26461245  0.38625569
   0.33534444  0.46758575  0.62059646
   0.65947185  0.62149566  0.48681585
   0.66321583  0.32741477  0.49224423
   0.32582146  0.57125261  0.34283229
   0.33199341  0.35962493  0.34259084
   0.40223375  0.46588757  0.25079605
   0.53604893  0.26518618  0.53248669
   0.53029416  0.67936476  0.52084242
   0.65835158  0.54771800  0.35672683
   0.65888258  0.39748873  0.35924030
   0.42560063  0.59681784  0.59967738
   0.42417269  0.34238106  0.59242763
   0.46653879  0.59336190  0.30420731
   0.47482769  0.34426299  0.30787377
   0.42723796  0.29934678  0.44198520
   0.42035317  0.63433284  0.43958061
   0.32092268  0.54304867  0.49375224
   0.32332226  0.39204414  0.49191972
   0.54433999  0.47194244  0.30414553
   0.57030682  0.55223401  0.59469678
   0.57195485  0.39847830  0.58848773
   0.65632237  0.47554235  0.49139713
   0.45152006  0.47082084  0.53347425
   0.53630518  0.54733311  0.43837271
   0.53735548  0.39382003  0.43893249
   0.41234993  0.46833836  0.39232742