  32  32   0   0
  0.1280000E+03  0.1600000E-08  0.1600000E-08  0.1600000E-08  0.5000000E-15
  1.000000000000000E-004
  CAR 
 unknown system                          
      2.19612780    -11.62474354  301     -3.19688637      1.00000000
    -11.625  0.0000E+00  0.0000E+00  0.0000E+00  0.0000E+00
    -11.579  0.0000E+00  0.0000E+00  0.0000E+00  0.0000E+00
    -11.533  0.0000E+00  0.0000E+00  0.0000E+00  0.0000E+00
    -11.487  0.0000E+00  0.0000E+00  0.0000E+00  0.0000E+00
    -11.440  0.0000E+00  0.0000E+00  0.0000E+00  0.0000E+00
    -11.394  0.0000E+00  0.0000E+00  0.0000E+00  0.0000E+00
    -11.348  0.0000E+00  0.0000E+00  0.0000E+00  0.0000E+00
    -11.302  0.0000E+00  0.0000E+00  0.0000E+00  0.0000E+00
    -11.256  0.0000E+00  0.0000E+00  0.0000E+00  0.0000E+00
    -11.210  0.0000E+00  0.0000E+00  0.0000E+00  0.0000E+00
    -11.164  0.0000E+00  0.0000E+00  0.0000E+00  0.0000E+00
    -11.118  0.0000E+00  0.0000E+00  0.0000E+00  0.0000E+00
    -11.072  0.1333E-10  0.3541E-08  0.6141E-12  0.1631E-09
    -11.026  0.9475E-04  0.1381E-02  0.4365E-05  0.6362E-04
    -10.980  0.4318E-01  0.6243E-01  0.1994E-02  0.2940E-02
    -10.934  0.2906E-01  0.8544E-02  0.3333E-02  0.3333E-02
    -10.888  0.1646E-04  0.3221E-06  0.3333E-02  0.3333E-02
    -10.842  0.4870E-12  0.4980E-15  0.3333E-02  0.3333E-02
    -10.795  0.0000E+00  0.0000E+00  0.3333E-02  0.3333E-02
    -10.749  0.0000E+00  0.0000E+00  0.3333E-02  0.3333E-02
    -10.703  0.0000E+00  0.0000E+00  0.3333E-02  0.3333E-02
    -10.657  0.0000E+00  0.0000E+00  0.3333E-02  0.3333E-02
    -10.611  0.0000E+00  0.0000E+00  0.3333E-02  0.3333E-02
    -10.565  0.0000E+00  0.0000E+00  0.3333E-02  0.3333E-02
    -10.519  0.0000E+00  0.0000E+00  0.3333E-02  0.3333E-02
    -10.473  0.0000E+00  0.0000E+00  0.3333E-02  0.3333E-02
    -10.427  0.0000E+00  0.0000E+00  0.3333E-02  0.3333E-02
    -10.381  0.0000E+00  0.0000E+00  0.3333E-02  0.3333E-02
    -10.335  0.0000E+00  0.0000E+00  0.3333E-02  0.3333E-02
    -10.289  0.0000E+00  0.0000E+00  0.3333E-02  0.3333E-02
    -10.243  0.0000E+00  0.0000E+00  0.3333E-02  0.3333E-02
    -10.197  0.0000E+00  0.0000E+00  0.3333E-02  0.3333E-02
    -10.151  0.0000E+00  0.0000E+00  0.3333E-02  0.3333E-02
    -10.104  0.0000E+00  0.0000E+00  0.3333E-02  0.3333E-02
    -10.058  0.3165E-14  0.0000E+00  0.3333E-02  0.3333E-02
    -10.012  0.9620E-06  0.5096E-08  0.3333E-02  0.3333E-02
     -9.966  0.1250E-01  0.1621E-02  0.3909E-02  0.3408E-02
     -9.920  0.5911E-01  0.6310E-01  0.6632E-02  0.6315E-02
     -9.874  0.7470E-03  0.7629E-02  0.6667E-02  0.6667E-02
     -9.828  0.9112E-09  0.2359E-06  0.6667E-02  0.6667E-02
     -9.782  0.0000E+00  0.2892E-15  0.6667E-02  0.6667E-02
     -9.736  0.0000E+00  0.0000E+00  0.6667E-02  0.6667E-02
     -9.690  0.0000E+00  0.0000E+00  0.6667E-02  0.6667E-02
     -9.644  0.0000E+00  0.0000E+00  0.6667E-02  0.6667E-02
     -9.598  0.0000E+00  0.0000E+00  0.6667E-02  0.6667E-02
     -9.552  0.1291E-08  0.3615E-16  0.6667E-02  0.6667E-02
     -9.506  0.8769E-03  0.6523E-07  0.6707E-02  0.6667E-02
     -9.459  0.6007E-01  0.4679E-02  0.9475E-02  0.6882E-02
     -9.413  0.1140E-01  0.6472E-01  0.1000E-01  0.9864E-02
     -9.367  0.7334E-06  0.2956E-02  0.1000E-01  0.1000E-01
     -9.321  0.2044E-14  0.2090E-07  0.1000E-01  0.1000E-01
     -9.275  0.8402E-07  0.1701E-08  0.1000E-01  0.1000E-01
     -9.229  0.5165E-02  0.9942E-03  0.1024E-01  0.1005E-01
     -9.183  0.6454E-01  0.6078E-01  0.1321E-01  0.1285E-01
     -9.137  0.2645E-02  0.1058E-01  0.1333E-01  0.1333E-01
     -9.091  0.1601E-07  0.5890E-06  0.1333E-01  0.1333E-01
     -9.045  0.0000E+00  0.1366E-14  0.1333E-01  0.1333E-01
     -8.999  0.0000E+00  0.0000E+00  0.1333E-01  0.1333E-01
     -8.953  0.4016E-17  0.0000E+00  0.1333E-01  0.1333E-01
     -8.907  0.1689E-07  0.0000E+00  0.1333E-01  0.1333E-01
     -8.861  0.2705E-02  0.0000E+00  0.1346E-01  0.1333E-01
     -8.814  0.6458E-01  0.1297E-08  0.1643E-01  0.1333E-01
     -8.768  0.5065E-02  0.8788E-03  0.1667E-01  0.1337E-01
     -8.722  0.7988E-07  0.6009E-01  0.1667E-01  0.1614E-01
     -8.676  0.7230E-16  0.1139E-01  0.1667E-01  0.1667E-01
     -8.630  0.5325E-07  0.7306E-06  0.1667E-01  0.1667E-01
     -8.584  0.4319E-02  0.1976E-14  0.1687E-01  0.1667E-01
     -8.538  0.6481E-01  0.8966E-08  0.1985E-01  0.1667E-01
     -8.492  0.3223E-02  0.2070E-02  0.2000E-01  0.1676E-01
     -8.446  0.2579E-07  0.6395E-01  0.2000E-01  0.1971E-01
     -8.400  0.0000E+00  0.6336E-02  0.2000E-01  0.2000E-01
     -8.354  0.0000E+00  0.1432E-06  0.2000E-01  0.2000E-01
     -8.308  0.0000E+00  0.1285E-15  0.2000E-01  0.2000E-01
     -8.262  0.0000E+00  0.0000E+00  0.2000E-01  0.2000E-01
     -8.216  0.0000E+00  0.0000E+00  0.2000E-01  0.2000E-01
     -8.170  0.0000E+00  0.0000E+00  0.2000E-01  0.2000E-01
     -8.123  0.0000E+00  0.0000E+00  0.2000E-01  0.2000E-01
     -8.077  0.0000E+00  0.0000E+00  0.2000E-01  0.2000E-01
     -8.031  0.0000E+00  0.0000E+00  0.2000E-01  0.2000E-01
     -7.985  0.0000E+00  0.0000E+00  0.2000E-01  0.2000E-01
     -7.939  0.5673E-12  0.0000E+00  0.2000E-01  0.2000E-01
     -7.893  0.1788E-04  0.0000E+00  0.2000E-01  0.2000E-01
     -7.847  0.3018E-01  0.0000E+00  0.2139E-01  0.2000E-01
     -7.801  0.9891E-01  0.0000E+00  0.2595E-01  0.2000E-01
     -7.755  0.1574E-01  0.6228E-13  0.2667E-01  0.2000E-01
     -7.709  0.4898E-01  0.5412E-05  0.2893E-01  0.2000E-01
     -7.663  0.9083E-01  0.2748E-01  0.3311E-01  0.2127E-01
     -7.617  0.1630E-01  0.1148E+00  0.3386E-01  0.2656E-01
     -7.571  0.8129E-01  0.2534E-02  0.3761E-01  0.2667E-01
     -7.525  0.5166E-01  0.4769E-01  0.3999E-01  0.2887E-01
     -7.478  0.1799E-01  0.2449E-01  0.4082E-01  0.3000E-01
     -7.432  0.1101E+00  0.9581E-05  0.4589E-01  0.3000E-01
     -7.386  0.7683E-01  0.1238E-01  0.4943E-01  0.3057E-01
     -7.340  0.1234E-01  0.7093E-01  0.5000E-01  0.3384E-01
     -7.294  0.1729E-01  0.6056E-01  0.5080E-01  0.3663E-01
     -7.248  0.5574E-01  0.1246E-02  0.5336E-01  0.3669E-01
     -7.202  0.6280E-01  0.5499E-01  0.5626E-01  0.3922E-01
     -7.156  0.8287E-01  0.1695E-01  0.6008E-01  0.4000E-01
     -7.110  0.1151E+00  0.1708E-01  0.6538E-01  0.4079E-01
     -7.064  0.2967E-01  0.6970E-01  0.6675E-01  0.4400E-01
     -7.018  0.6585E-01  0.7615E-01  0.6978E-01  0.4751E-01
     -6.972  0.9734E-01  0.5381E-01  0.7426E-01  0.4999E-01
     -6.926  0.5201E-01  0.5820E-02  0.7666E-01  0.5025E-01
     -6.880  0.2848E-01  0.6440E-01  0.7797E-01  0.5322E-01
     -6.834  0.4395E-01  0.2954E-02  0.8000E-01  0.5336E-01
     -6.787  0.3774E-01  0.6535E-01  0.8174E-01  0.5637E-01
     -6.741  0.3750E-01  0.7804E-01  0.8346E-01  0.5996E-01
     -6.695  0.6471E-01  0.5696E-01  0.8645E-01  0.6259E-01
     -6.649  0.2135E-01  0.5623E-01  0.8743E-01  0.6518E-01
     -6.603  0.1039E+00  0.9932E-01  0.9221E-01  0.6975E-01
     -6.557  0.2430E-01  0.7823E-01  0.9333E-01  0.7336E-01
     -6.511  0.1214E-01  0.6007E-01  0.9389E-01  0.7612E-01
     -6.465  0.1287E+00  0.1793E-01  0.9982E-01  0.7695E-01
     -6.419  0.7029E-01  0.6407E-01  0.1031E+00  0.7990E-01
     -6.373  0.1007E+00  0.2155E-02  0.1077E+00  0.8000E-01
     -6.327  0.1289E+00  0.9953E-08  0.1136E+00  0.8000E-01
     -6.281  0.6884E-01  0.2624E-03  0.1168E+00  0.8001E-01
     -6.235  0.7597E-01  0.5167E-01  0.1203E+00  0.8239E-01
     -6.189  0.1080E+00  0.6278E-01  0.1253E+00  0.8528E-01
     -6.142  0.1353E+00  0.3073E-01  0.1315E+00  0.8670E-01
     -6.096  0.1375E+00  0.5922E-01  0.1378E+00  0.8943E-01
     -6.050  0.1022E+00  0.4141E-01  0.1426E+00  0.9134E-01
     -6.004  0.8809E-01  0.4324E-01  0.1466E+00  0.9333E-01
     -5.958  0.1073E+00  0.1552E-02  0.1516E+00  0.9340E-01
     -5.912  0.1073E+00  0.9268E-01  0.1565E+00  0.9767E-01
     -5.866  0.1973E+00  0.7009E-01  0.1656E+00  0.1009E+00
     -5.820  0.1647E+00  0.7041E-01  0.1732E+00  0.1041E+00
     -5.774  0.6782E-01  0.8880E-01  0.1763E+00  0.1082E+00
     -5.728  0.9737E-01  0.1267E+00  0.1808E+00  0.1141E+00
     -5.682  0.1048E+00  0.5882E-01  0.1856E+00  0.1168E+00
     -5.636  0.1591E+00  0.1060E+00  0.1929E+00  0.1217E+00
     -5.590  0.7742E-01  0.1051E+00  0.1965E+00  0.1265E+00
     -5.544  0.1246E+00  0.9307E-01  0.2022E+00  0.1308E+00
     -5.497  0.1840E+00  0.1374E+00  0.2107E+00  0.1371E+00
     -5.451  0.6178E-01  0.9712E-01  0.2136E+00  0.1416E+00
     -5.405  0.7078E-01  0.1355E+00  0.2168E+00  0.1478E+00
     -5.359  0.6981E-01  0.1073E+00  0.2200E+00  0.1528E+00
     -5.313  0.8031E-01  0.6592E-01  0.2237E+00  0.1558E+00
     -5.267  0.1086E+00  0.1297E+00  0.2287E+00  0.1618E+00
     -5.221  0.1148E+00  0.1632E+00  0.2340E+00  0.1693E+00
     -5.175  0.1097E+00  0.1492E+00  0.2391E+00  0.1762E+00
     -5.129  0.1594E+00  0.9476E-01  0.2464E+00  0.1806E+00
     -5.083  0.1368E+00  0.9473E-01  0.2527E+00  0.1849E+00
     -5.037  0.1308E+00  0.1084E+00  0.2588E+00  0.1899E+00
     -4.991  0.1563E+00  0.6338E-01  0.2660E+00  0.1928E+00
     -4.945  0.8105E-01  0.6918E-01  0.2697E+00  0.1960E+00
     -4.899  0.1150E+00  0.1605E+00  0.2750E+00  0.2034E+00
     -4.853  0.1553E+00  0.1599E+00  0.2821E+00  0.2108E+00
     -4.806  0.1601E+00  0.5826E-01  0.2895E+00  0.2135E+00
     -4.760  0.1368E+00  0.6519E-01  0.2958E+00  0.2165E+00
     -4.714  0.1446E+00  0.4432E-01  0.3025E+00  0.2185E+00
     -4.668  0.1529E+00  0.1048E+00  0.3095E+00  0.2233E+00
     -4.622  0.9837E-01  0.9118E-01  0.3141E+00  0.2275E+00
     -4.576  0.1605E+00  0.1090E+00  0.3214E+00  0.2326E+00
     -4.530  0.1399E+00  0.1860E+00  0.3279E+00  0.2411E+00
     -4.484  0.1983E+00  0.1188E+00  0.3370E+00  0.2466E+00
     -4.438  0.1537E+00  0.8319E-01  0.3441E+00  0.2504E+00
     -4.392  0.2240E+00  0.1664E+00  0.3544E+00  0.2581E+00
     -4.346  0.1573E+00  0.2062E+00  0.3617E+00  0.2676E+00
     -4.300  0.2202E+00  0.6212E-01  0.3718E+00  0.2705E+00
     -4.254  0.2113E+00  0.1200E+00  0.3816E+00  0.2760E+00
     -4.208  0.1867E+00  0.1185E+00  0.3902E+00  0.2815E+00
     -4.161  0.2599E+00  0.1462E+00  0.4021E+00  0.2882E+00
     -4.115  0.3113E+00  0.1741E+00  0.4165E+00  0.2962E+00
     -4.069  0.2440E+00  0.1575E+00  0.4277E+00  0.3035E+00
     -4.023  0.3635E+00  0.1195E+00  0.4445E+00  0.3090E+00
     -3.977  0.3513E+00  0.1396E+00  0.4606E+00  0.3154E+00
     -3.931  0.3042E+00  0.1133E+00  0.4747E+00  0.3206E+00
     -3.885  0.3103E+00  0.2013E+00  0.4890E+00  0.3299E+00
     -3.839  0.3015E+00  0.1869E+00  0.5028E+00  0.3385E+00
     -3.793  0.2080E+00  0.1723E+00  0.5124E+00  0.3464E+00
     -3.747  0.2355E+00  0.1512E+00  0.5233E+00  0.3534E+00
     -3.701  0.7357E-01  0.1815E+00  0.5267E+00  0.3618E+00
     -3.655  0.4255E-01  0.2167E+00  0.5286E+00  0.3718E+00
     -3.609  0.7655E-01  0.1825E+00  0.5321E+00  0.3802E+00
     -3.563  0.2573E-01  0.2114E+00  0.5333E+00  0.3899E+00
     -3.516  0.1033E-04  0.2219E+00  0.5333E+00  0.4001E+00
     -3.470  0.2080E-12  0.2031E+00  0.5333E+00  0.4095E+00
     -3.424  0.4903E-08  0.2894E+00  0.5333E+00  0.4228E+00
     -3.378  0.1594E-02  0.2454E+00  0.5334E+00  0.4341E+00
     -3.332  0.6304E-01  0.3039E+00  0.5363E+00  0.4481E+00
     -3.286  0.7724E-02  0.1990E+00  0.5367E+00  0.4573E+00
     -3.240  0.2440E-06  0.1897E+00  0.5367E+00  0.4660E+00
     -3.194  0.2582E-04  0.8957E-01  0.5367E+00  0.4702E+00
     -3.148  0.3251E-01  0.1668E+00  0.5382E+00  0.4778E+00
     -3.102  0.3976E-01  0.2341E+00  0.5400E+00  0.4886E+00
     -3.056  0.6303E-04  0.2357E+00  0.5400E+00  0.4995E+00
     -3.010  0.4493E-05  0.2297E+00  0.5400E+00  0.5101E+00
     -2.964  0.2032E-01  0.2456E+00  0.5409E+00  0.5214E+00
     -2.918  0.5176E-01  0.1531E+00  0.5433E+00  0.5284E+00
     -2.872  0.3968E-03  0.3658E-01  0.5433E+00  0.5301E+00
     -2.825  0.4573E-01  0.6458E-01  0.5454E+00  0.5331E+00
     -2.779  0.2650E-01  0.4793E-01  0.5467E+00  0.5353E+00
     -2.733  0.2886E-01  0.3150E-01  0.5480E+00  0.5368E+00
     -2.687  0.5563E-01  0.6359E-01  0.5506E+00  0.5397E+00
     -2.641  0.5943E-01  0.6942E-02  0.5533E+00  0.5400E+00
     -2.595  0.7755E-03  0.1305E-02  0.5533E+00  0.5401E+00
     -2.549  0.9891E-09  0.6217E-01  0.5533E+00  0.5429E+00
     -2.503  0.2218E-04  0.1998E-01  0.5533E+00  0.5438E+00
     -2.457  0.3133E-01  0.6033E-01  0.5548E+00  0.5466E+00
     -2.411  0.4093E-01  0.9659E-03  0.5567E+00  0.5467E+00
     -2.365  0.7253E-04  0.3759E-01  0.5567E+00  0.5484E+00
     -2.319  0.7937E-11  0.6424E-01  0.5567E+00  0.5514E+00
     -2.273  0.1438E-06  0.4275E-01  0.5567E+00  0.5533E+00
     -2.227  0.6345E-02  0.1527E-03  0.5570E+00  0.5533E+00
     -2.180  0.6395E-01  0.3976E-01  0.5599E+00  0.5552E+00
     -2.134  0.1935E-01  0.3250E-01  0.5608E+00  0.5567E+00
     -2.088  0.5468E-01  0.2581E-04  0.5633E+00  0.5567E+00
     -2.042  0.3926E-03  0.1120E-11  0.5633E+00  0.5567E+00
     -1.996  0.8616E-02  0.4079E-11  0.5637E+00  0.5567E+00
     -1.950  0.6237E-01  0.5126E-04  0.5666E+00  0.5567E+00
     -1.904  0.1364E-02  0.3804E-01  0.5667E+00  0.5584E+00
     -1.858  0.3445E-08  0.3451E-01  0.5667E+00  0.5600E+00
     -1.812  0.0000E+00  0.5213E-01  0.5667E+00  0.5624E+00
     -1.766  0.2095E-10  0.1997E-01  0.5667E+00  0.5633E+00
     -1.720  0.1193E-03  0.3417E-02  0.5667E+00  0.5635E+00
     -1.674  0.4512E-01  0.6485E-01  0.5688E+00  0.5665E+00
     -1.628  0.2710E-01  0.4089E-02  0.5700E+00  0.5667E+00
     -1.582  0.1258E-04  0.4643E-07  0.5700E+00  0.5667E+00
     -1.536  0.2979E-12  0.0000E+00  0.5700E+00  0.5667E+00
     -1.489  0.0000E+00  0.7369E-09  0.5700E+00  0.5667E+00
     -1.443  0.0000E+00  0.6769E-03  0.5700E+00  0.5667E+00
     -1.397  0.0000E+00  0.5848E-01  0.5700E+00  0.5694E+00
     -1.351  0.1191E-08  0.1319E-01  0.5700E+00  0.5700E+00
     -1.305  0.8450E-03  0.1131E-05  0.5700E+00  0.5700E+00
     -1.259  0.5986E-01  0.4185E-14  0.5728E+00  0.5700E+00
     -1.213  0.1165E-01  0.2634E-10  0.5733E+00  0.5700E+00
     -1.167  0.1033E-05  0.1340E-03  0.5733E+00  0.5700E+00
     -1.121  0.7806E-02  0.4609E-01  0.5737E+00  0.5721E+00
     -1.075  0.6697E-01  0.2612E-01  0.5768E+00  0.5733E+00
     -1.029  0.6643E-01  0.1097E-04  0.5798E+00  0.5733E+00
     -0.983  0.3495E-02  0.2495E-02  0.5800E+00  0.5734E+00
     -0.937  0.8451E-03  0.6471E-01  0.5800E+00  0.5764E+00
     -0.891  0.5986E-01  0.5762E-01  0.5828E+00  0.5791E+00
     -0.844  0.2513E-01  0.1988E-01  0.5840E+00  0.5800E+00
     -0.798  0.5825E-01  0.5398E-05  0.5866E+00  0.5800E+00
     -0.752  0.3137E-01  0.1356E-01  0.5881E+00  0.5806E+00
     -0.706  0.4155E-01  0.5815E-01  0.5900E+00  0.5833E+00
     -0.660  0.2239E-01  0.2260E-01  0.5910E+00  0.5843E+00
     -0.614  0.5671E-01  0.5020E-01  0.5936E+00  0.5867E+00
     -0.568  0.6406E-01  0.3447E-01  0.5966E+00  0.5882E+00
     -0.522  0.5332E-01  0.3815E-01  0.5990E+00  0.5900E+00
     -0.476  0.7455E-01  0.4573E-01  0.6025E+00  0.5921E+00
     -0.430  0.2114E-01  0.7123E-01  0.6035E+00  0.5954E+00
     -0.384  0.6459E-01  0.2895E-01  0.6064E+00  0.5967E+00
     -0.338  0.2209E-01  0.6218E-01  0.6075E+00  0.5996E+00
     -0.292  0.5518E-01  0.4505E-01  0.6100E+00  0.6017E+00
     -0.246  0.5162E-01  0.9295E-01  0.6124E+00  0.6059E+00
     -0.199  0.2866E-01  0.1567E-01  0.6137E+00  0.6067E+00
     -0.153  0.6301E-01  0.3946E-01  0.6166E+00  0.6085E+00
     -0.107  0.1579E-02  0.3298E-01  0.6167E+00  0.6100E+00
     -0.061  0.4804E-08  0.4811E-01  0.6167E+00  0.6122E+00
     -0.015  0.0000E+00  0.5252E-01  0.6167E+00  0.6146E+00
      0.031  0.0000E+00  0.4383E-01  0.6167E+00  0.6167E+00
      0.077  0.0000E+00  0.1023E-03  0.6167E+00  0.6167E+00
      0.123  0.0000E+00  0.1548E-10  0.6167E+00  0.6167E+00
      0.169  0.0000E+00  0.0000E+00  0.6167E+00  0.6167E+00
      0.215  0.0000E+00  0.0000E+00  0.6167E+00  0.6167E+00
      0.261  0.0000E+00  0.0000E+00  0.6167E+00  0.6167E+00
      0.307  0.0000E+00  0.0000E+00  0.6167E+00  0.6167E+00
      0.353  0.0000E+00  0.0000E+00  0.6167E+00  0.6167E+00
      0.399  0.0000E+00  0.0000E+00  0.6167E+00  0.6167E+00
      0.445  0.0000E+00  0.0000E+00  0.6167E+00  0.6167E+00
      0.492  0.0000E+00  0.0000E+00  0.6167E+00  0.6167E+00
      0.538  0.0000E+00  0.0000E+00  0.6167E+00  0.6167E+00
      0.584  0.0000E+00  0.0000E+00  0.6167E+00  0.6167E+00
      0.630  0.0000E+00  0.0000E+00  0.6167E+00  0.6167E+00
      0.676  0.1271E-11  0.0000E+00  0.6167E+00  0.6167E+00
      0.722  0.2762E-04  0.0000E+00  0.6167E+00  0.6167E+00
      0.768  0.3304E-01  0.8435E-16  0.6182E+00  0.6167E+00
      0.814  0.3923E-01  0.1115E-06  0.6200E+00  0.6167E+00
      0.860  0.5916E-04  0.5760E-02  0.6200E+00  0.6169E+00
      0.906  0.2064E-04  0.6427E-01  0.6200E+00  0.6199E+00
      0.952  0.3258E-01  0.2327E-02  0.6215E+00  0.6200E+00
      0.998  0.1050E+00  0.1734E-06  0.6263E+00  0.6200E+00
      1.044  0.4183E-01  0.8596E-02  0.6283E+00  0.6204E+00
      1.090  0.9195E-01  0.1287E+00  0.6325E+00  0.6263E+00
      1.137  0.8761E-01  0.6794E-01  0.6365E+00  0.6295E+00
      1.183  0.1557E-01  0.1879E-01  0.6373E+00  0.6303E+00
      1.229  0.5881E-01  0.1255E+00  0.6400E+00  0.6361E+00
      1.275  0.2178E-02  0.2268E-01  0.6401E+00  0.6371E+00
      1.321  0.6366E-01  0.6118E-01  0.6430E+00  0.6400E+00
      1.367  0.6884E-01  0.5370E-01  0.6462E+00  0.6424E+00
      1.413  0.2351E-01  0.2149E-01  0.6473E+00  0.6434E+00
      1.459  0.1263E+00  0.6495E-01  0.6531E+00  0.6464E+00
      1.505  0.2552E-01  0.1052E+00  0.6542E+00  0.6513E+00
      1.551  0.1208E+00  0.9095E-01  0.6598E+00  0.6555E+00
      1.597  0.4060E-02  0.9714E-01  0.6600E+00  0.6599E+00
      1.643  0.3399E-07  0.1415E-02  0.6600E+00  0.6600E+00
      1.689  0.0000E+00  0.3543E-08  0.6600E+00  0.6600E+00
      1.735  0.0000E+00  0.0000E+00  0.6600E+00  0.6600E+00
      1.782  0.0000E+00  0.0000E+00  0.6600E+00  0.6600E+00
      1.828  0.0000E+00  0.0000E+00  0.6600E+00  0.6600E+00
      1.874  0.0000E+00  0.0000E+00  0.6600E+00  0.6600E+00
      1.920  0.0000E+00  0.0000E+00  0.6600E+00  0.6600E+00
      1.966  0.0000E+00  0.0000E+00  0.6600E+00  0.6600E+00
      2.012  0.0000E+00  0.0000E+00  0.6600E+00  0.6600E+00
      2.058  0.0000E+00  0.0000E+00  0.6600E+00  0.6600E+00
      2.104  0.0000E+00  0.0000E+00  0.6600E+00  0.6600E+00
      2.150  0.0000E+00  0.0000E+00  0.6600E+00  0.6600E+00
      2.196  0.0000E+00  0.0000E+00  0.6600E+00  0.6600E+00
