<?xml version="1.0" encoding="ISO-8859-1"?>
<modeling>
 <generator>
  <i name="program" type="string">vasp </i>
  <i name="version" type="string">6.3.2  </i>
  <i name="subversion" type="string">27Jun22 (build Nov 14 2022 18:12:39) complex                          parallel </i>
  <i name="platform" type="string">Saga </i>
  <i name="date" type="string">2023 01 30 </i>
  <i name="time" type="string">20:21:29 </i>
 </generator>
 <incar>
  <i type="int" name="ISTART">     0</i>
  <i type="string" name="PREC">Accurate</i>
  <i type="int" name="ISPIN">     2</i>
  <i type="int" name="NELM">   120</i>
  <i type="int" name="IBRION">     2</i>
  <i name="EDIFFG">     -0.02000000</i>
  <i type="int" name="NSW">   300</i>
  <i type="int" name="ISYM">    -1</i>
  <i name="ENCUT">    400.00000000</i>
  <i type="int" name="ISMEAR">     0</i>
  <i name="SIGMA">      0.02000000</i>
  <i type="logical" name="LWAVE"> F  </i>
  <i type="logical" name="LCHARG"> F  </i>
  <i type="string" name="GGA">PE</i>
 </incar>
 <primitive_cell>
  <structure name="primitive_cell" >
   <crystal>
    <varray name="basis" >
     <v>      16.00000000       0.00000000       0.00000000 </v>
     <v>       0.00000000      16.00000000       0.00000000 </v>
     <v>       0.00000000       0.00000000      16.00000000 </v>
    </varray>
    <i name="volume">   4096.00000000 </i>
    <varray name="rec_basis" >
     <v>       0.06250000       0.00000000       0.00000000 </v>
     <v>       0.00000000       0.06250000       0.00000000 </v>
     <v>       0.00000000       0.00000000       0.06250000 </v>
    </varray>
   </crystal>
   <varray name="positions" >
    <v>       0.24519860       0.46644179       0.39361015 </v>
    <v>       0.47572325       0.46498100       0.67899954 </v>
    <v>       0.56542719       0.67870942       0.38850544 </v>
    <v>       0.57151158       0.26480365       0.38532892 </v>
    <v>       0.33790829       0.46730806       0.62462410 </v>
    <v>       0.66091724       0.62039149       0.49096673 </v>
    <v>       0.66274834       0.32558292       0.49161963 </v>
    <v>       0.32902893       0.57548410       0.34758521 </v>
    <v>       0.33265598       0.36074344       0.34589142 </v>
    <v>       0.40193155       0.46945372       0.25367487 </v>
    <v>       0.53678343       0.26342178       0.53248366 </v>
    <v>       0.53206341       0.67754946       0.53404357 </v>
    <v>       0.65614852       0.54989485       0.35848137 </v>
    <v>       0.65907786       0.39771757       0.35888769 </v>
    <v>       0.42388649       0.59459986       0.60035727 </v>
    <v>       0.42696413       0.34229346       0.59552709 </v>
    <v>       0.47030708       0.59470583       0.31099861 </v>
    <v>       0.47352537       0.34469672       0.30790031 </v>
    <v>       0.42806297       0.30071906       0.44421720 </v>
    <v>       0.42298968       0.63651049       0.44663129 </v>
    <v>       0.32215600       0.54318651       0.49681990 </v>
    <v>       0.32418167       0.39224283       0.49454388 </v>
    <v>       0.54419114       0.47086200       0.30544723 </v>
    <v>       0.57285586       0.54765889       0.59441562 </v>
    <v>       0.57382906       0.39636477       0.59010852 </v>
    <v>       0.65832766       0.47347092       0.49140329 </v>
    <v>       0.45299669       0.46977254       0.53620476 </v>
    <v>       0.53727524       0.54742795       0.44153168 </v>
    <v>       0.53866168       0.39396091       0.44004928 </v>
    <v>       0.41332524       0.46913049       0.39488239 </v>
    <v>       0.51491247       0.64166722       0.63073326 </v>
    <v>       0.50634486       0.57564337       0.67288310 </v>
   </varray>
  </structure>
  <varray name="primitive_index" >
   <v type="int" >        1 </v>
   <v type="int" >        2 </v>
   <v type="int" >        3 </v>
   <v type="int" >        4 </v>
   <v type="int" >        5 </v>
   <v type="int" >        6 </v>
   <v type="int" >        7 </v>
   <v type="int" >        8 </v>
   <v type="int" >        9 </v>
   <v type="int" >       10 </v>
   <v type="int" >       11 </v>
   <v type="int" >       12 </v>
   <v type="int" >       13 </v>
   <v type="int" >       14 </v>
   <v type="int" >       15 </v>
   <v type="int" >       16 </v>
   <v type="int" >       17 </v>
   <v type="int" >       18 </v>
   <v type="int" >       19 </v>
   <v type="int" >       20 </v>
   <v type="int" >       21 </v>
   <v type="int" >       22 </v>
   <v type="int" >       23 </v>
   <v type="int" >       24 </v>
   <v type="int" >       25 </v>
   <v type="int" >       26 </v>
   <v type="int" >       27 </v>
   <v type="int" >       28 </v>
   <v type="int" >       29 </v>
   <v type="int" >       30 </v>
   <v type="int" >       31 </v>
   <v type="int" >       32 </v>
  </varray>
 </primitive_cell>
 <kpoints>
  <generation param="Monkhorst-Pack">
   <v type="int" name="divisions">       1        1        1 </v>
   <v name="usershift">      0.00000000       0.00000000       0.00000000 </v>
   <v name="genvec1">      1.00000000       0.00000000       0.00000000 </v>
   <v name="genvec2">      0.00000000       1.00000000       0.00000000 </v>
   <v name="genvec3">      0.00000000       0.00000000       1.00000000 </v>
   <v name="shift">      0.00000000       0.00000000       0.00000000 </v>
  </generation>
  <varray name="kpointlist" >
   <v>       0.00000000       0.00000000       0.00000000 </v>
  </varray>
  <varray name="weights" >
   <v>       1.00000000 </v>
  </varray>
 </kpoints>
 <parameters>
  <separator name="general" >
   <i type="string" name="SYSTEM">unknown system</i>
   <i type="logical" name="LCOMPAT"> F  </i>
  </separator>
  <separator name="electronic" >
   <i type="string" name="PREC">accura</i>
   <i name="ENMAX">    400.00000000</i>
   <i name="ENAUG">    544.56500000</i>
   <i name="EDIFF">      0.00010000</i>
   <i type="int" name="IALGO">    38</i>
   <i type="int" name="IWAVPR">    11</i>
   <i type="int" name="NBANDS">   198</i>
   <i type="int" name="NBANDSLOW">    -1</i>
   <i type="int" name="NBANDSHIGH">    -1</i>
   <i name="NELECT">    302.00000000</i>
   <i type="int" name="TURBO">     0</i>
   <i type="int" name="IRESTART">     0</i>
   <i type="int" name="NREBOOT">     0</i>
   <i type="int" name="NMIN">     0</i>
   <i name="EREF">      0.00000000</i>
   <separator name="electronic smearing" >
    <i type="int" name="ISMEAR">     0</i>
    <i name="SIGMA">      0.02000000</i>
    <i name="KSPACING">      0.50000000</i>
    <i type="logical" name="KGAMMA"> T  </i>
    <i type="logical" name="KBLOWUP"> F  </i>
   </separator>
   <separator name="electronic projectors" >
    <i type="logical" name="LREAL"> F  </i>
    <v name="ROPT">      0.00000000      0.00000000</v>
    <i type="int" name="LMAXPAW">  -100</i>
    <i type="int" name="LMAXMIX">     2</i>
    <i type="logical" name="NLSPLINE"> F  </i>
   </separator>
   <separator name="electronic startup" >
    <i type="int" name="ISTART">     0</i>
    <i type="int" name="ICHARG">     2</i>
    <i type="int" name="INIWAV">     1</i>
   </separator>
   <separator name="electronic spin" >
    <i type="int" name="ISPIN">     2</i>
    <i type="logical" name="LNONCOLLINEAR"> F  </i>
    <v name="MAGMOM">      1.00000000      1.00000000      1.00000000      1.00000000      1.00000000      1.00000000      1.00000000      1.00000000      1.00000000      1.00000000      1.00000000      1.00000000      1.00000000      1.00000000      1.00000000      1.00000000      1.00000000      1.00000000      1.00000000      1.00000000
      1.00000000      1.00000000      1.00000000      1.00000000      1.00000000      1.00000000      1.00000000      1.00000000      1.00000000      1.00000000      1.00000000      1.00000000</v>
    <i name="NUPDOWN">     -1.00000000</i>
    <i type="logical" name="LSORBIT"> F  </i>
    <v name="SAXIS">      0.00000000      0.00000000      1.00000000</v>
    <i type="logical" name="LSPIRAL"> F  </i>
    <v name="QSPIRAL">      0.00000000      0.00000000      0.00000000</v>
    <i type="logical" name="LZEROZ"> F  </i>
   </separator>
   <separator name="electronic exchange-correlation" >
    <i type="logical" name="LASPH"> F  </i>
    <i type="logical" name="LMETAGGA"> F  </i>
   </separator>
   <separator name="electronic convergence" >
    <i type="int" name="NELM">   120</i>
    <i type="int" name="NELMDL">    -5</i>
    <i type="int" name="NELMIN">     2</i>
    <i name="ENINI">    400.00000000</i>
    <separator name="electronic convergence detail" >
     <i type="logical" name="LDIAG"> T  </i>
     <i type="logical" name="LSUBROT"> F  </i>
     <i name="WEIMIN">      0.00100000</i>
     <i name="EBREAK">      0.00000013</i>
     <i name="DEPER">      0.30000000</i>
     <i type="int" name="NRMM">     4</i>
     <i name="TIME">      0.40000000</i>
    </separator>
   </separator>
   <separator name="electronic mixer" >
    <i name="AMIX">      0.40000000</i>
    <i name="BMIX">      1.00000000</i>
    <i name="AMIN">      0.10000000</i>
    <i name="AMIX_MAG">      1.60000000</i>
    <i name="BMIX_MAG">      1.00000000</i>
    <separator name="electronic mixer details" >
     <i type="int" name="IMIX">     4</i>
     <i type="logical" name="MIXFIRST"> F  </i>
     <i type="int" name="MAXMIX">   -45</i>
     <i name="WC">    100.00000000</i>
     <i type="int" name="INIMIX">     1</i>
     <i type="int" name="MIXPRE">     1</i>
     <i type="int" name="MREMOVE">     5</i>
    </separator>
   </separator>
   <separator name="electronic dipolcorrection" >
    <i type="logical" name="LDIPOL"> F  </i>
    <i type="logical" name="LMONO"> F  </i>
    <i type="int" name="IDIPOL">     0</i>
    <i name="EPSILON">      1.00000000</i>
    <v name="DIPOL">   -100.00000000   -100.00000000   -100.00000000</v>
    <i name="EFIELD">      0.00000000</i>
   </separator>
  </separator>
  <separator name="grids" >
   <i type="int" name="NGX">   108</i>
   <i type="int" name="NGY">   108</i>
   <i type="int" name="NGZ">   108</i>
   <i type="int" name="NGXF">   216</i>
   <i type="int" name="NGYF">   216</i>
   <i type="int" name="NGZF">   216</i>
   <i type="logical" name="ADDGRID"> F  </i>
  </separator>
  <separator name="ionic" >
   <i type="int" name="NSW">   300</i>
   <i type="int" name="IBRION">     2</i>
   <i type="int" name="MDALGO">     0</i>
   <i type="int" name="ISIF">     2</i>
   <i name="PSTRESS">      0.00000000</i>
   <i name="EDIFFG">     -0.02000000</i>
   <i type="int" name="NFREE">     1</i>
   <i name="POTIM">      0.50000000</i>
   <i name="SMASS">     -3.00000000</i>
   <i name="SCALEE">      1.00000000</i>
  </separator>
  <separator name="ionic md" >
   <i name="TEBEG">      0.00010000</i>
   <i name="TEEND">      0.00010000</i>
   <i type="int" name="NBLOCK">     1</i>
   <i type="int" name="KBLOCK">   300</i>
   <i type="int" name="NPACO">   256</i>
   <i name="APACO">     10.00000000</i>
  </separator>
  <separator name="symmetry" >
   <i type="int" name="ISYM">    -1</i>
   <i name="SYMPREC">      0.00001000</i>
  </separator>
  <separator name="dos" >
   <i type="int" name="LORBIT">     0</i>
   <v name="RWIGS">     -1.00000000     -1.00000000</v>
   <i type="int" name="NEDOS">   301</i>
   <i name="EMIN">     10.00000000</i>
   <i name="EMAX">    -10.00000000</i>
   <i name="EFERMI">      0.00000000</i>
  </separator>
  <separator name="writing" >
   <i type="int" name="NWRITE">     2</i>
   <i type="logical" name="LWAVE"> F  </i>
   <i type="logical" name="LDOWNSAMPLE"> F  </i>
   <i type="logical" name="LCHARG"> F  </i>
   <i type="logical" name="LPARD"> F  </i>
   <i type="logical" name="LVTOT"> F  </i>
   <i type="logical" name="LVHAR"> F  </i>
   <i type="logical" name="LELF"> F  </i>
   <i type="logical" name="LOPTICS"> F  </i>
   <v name="STM">      0.00000000      0.00000000      0.00000000      0.00000000      0.00000000      0.00000000      0.00000000</v>
  </separator>
  <separator name="performance" >
   <i type="int" name="NPAR">     6</i>
   <i type="int" name="NSIM">     4</i>
   <i type="int" name="NBLK">    -1</i>
   <i type="logical" name="LPLANE"> T  </i>
   <i type="logical" name="LSCALAPACK"> T  </i>
   <i type="logical" name="LSCAAWARE"> F  </i>
   <i type="logical" name="LSCALU"> F  </i>
   <i type="logical" name="LASYNC"> F  </i>
   <i type="logical" name="LORBITALREAL"> F  </i>
  </separator>
  <separator name="miscellaneous" >
   <i type="int" name="IDIOT">     3</i>
   <i type="int" name="PHON_NSTRUCT">    -1</i>
   <i type="logical" name="LMUSIC"> F  </i>
   <v name="POMASS">     58.69000000      1.00000000</v>
   <v name="DARWINR">      0.00000000      0.00000000</v>
   <v name="DARWINV">      1.00000000      1.00000000</v>
   <i type="logical" name="LCORR"> T  </i>
  </separator>
  <i type="logical" name="GGA_COMPAT"> T  </i>
  <i type="logical" name="LBERRY"> F  </i>
  <i type="int" name="ICORELEVEL">     0</i>
  <i type="logical" name="LDAU"> F  </i>
  <i type="int" name="I_CONSTRAINED_M">     0</i>
  <separator name="electronic exchange-correlation" >
   <i type="string" name="GGA">PE</i>
   <i type="int" name="VOSKOWN">     0</i>
   <i type="logical" name="LHFCALC"> F  </i>
   <i type="string" name="PRECFOCK"></i>
   <i type="logical" name="LSYMGRAD"> F  </i>
   <i type="logical" name="LHFONE"> F  </i>
   <i type="logical" name="LRHFCALC"> F  </i>
   <i type="logical" name="LTHOMAS"> F  </i>
   <i type="logical" name="LMODELHF"> F  </i>
   <i type="logical" name="LFOCKACE"> F  </i>
   <i name="ENCUT4O">     -1.00000000</i>
   <i type="int" name="EXXOEP">     0</i>
   <i type="int" name="FOURORBIT">     0</i>
   <i name="AEXX">      0.00000000</i>
   <i name="HFALPHA">      0.00000000</i>
   <i name="MCALPHA">      0.00000000</i>
   <i name="ALDAX">      1.00000000</i>
   <i name="AGGAX">      1.00000000</i>
   <i name="ALDAC">      1.00000000</i>
   <i name="AGGAC">      1.00000000</i>
   <i type="int" name="NKREDX">     1</i>
   <i type="int" name="NKREDY">     1</i>
   <i type="int" name="NKREDZ">     1</i>
   <i type="logical" name="SHIFTRED"> F  </i>
   <i type="logical" name="ODDONLY"> F  </i>
   <i type="logical" name="EVENONLY"> F  </i>
   <i type="int" name="LMAXFOCK">     0</i>
   <i type="int" name="NMAXFOCKAE">     0</i>
   <i type="logical" name="LFOCKAEDFT"> F  </i>
   <i name="HFSCREEN">      0.00000000</i>
   <i name="HFSCREENC">      0.00000000</i>
   <i type="int" name="NBANDSGWLOW">     0</i>
  </separator>
  <separator name="vdW DFT" >
   <i type="logical" name="LUSE_VDW"> F  </i>
   <i name="Zab_VDW">     -0.84910000</i>
   <i name="PARAM1">      0.12340000</i>
   <i name="PARAM2">      1.00000000</i>
   <i name="PARAM3">      0.00000000</i>
  </separator>
  <separator name="model GW" >
   <i type="int" name="MODEL_GW">     0</i>
   <i name="MODEL_EPS0">     76.80000000</i>
   <i name="MODEL_ALPHA">      1.00000000</i>
  </separator>
  <separator name="linear response parameters" >
   <i type="logical" name="LEPSILON"> F  </i>
   <i type="logical" name="LRPA"> F  </i>
   <i type="logical" name="LNABLA"> F  </i>
   <i type="logical" name="LVEL"> F  </i>
   <i name="CSHIFT">      0.10000000</i>
   <i name="OMEGAMAX">     -1.00000000</i>
   <i name="DEG_THRESHOLD">      0.00200000</i>
   <i name="RTIME">     -0.10000000</i>
   <i name="WPLASMAI">      0.00000000</i>
   <v name="DFIELD">      0.00000000      0.00000000      0.00000000</v>
   <v name="WPLASMA">      0.00000000      0.00000000      0.00000000      0.00000000      0.00000000      0.00000000      0.00000000      0.00000000      0.00000000</v>
  </separator>
  <separator name="orbital magnetization" >
   <i type="logical" name="NUCIND"> F  </i>
   <v name="MAGPOS">      0.00000000      0.00000000      0.00000000</v>
   <i type="logical" name="LNICSALL"> T  </i>
   <i type="logical" name="ORBITALMAG"> F  </i>
   <i type="logical" name="LMAGBLOCH"> F  </i>
   <i type="logical" name="LCHIMAG"> F  </i>
   <i type="logical" name="LGAUGE"> T  </i>
   <i type="int" name="MAGATOM">     0</i>
   <v name="MAGDIPOL">      0.00000000      0.00000000      0.00000000</v>
   <v name="AVECCONST">      0.00000000      0.00000000      0.00000000</v>
  </separator>
  <separator name="response functions" >
   <i type="logical" name="LFINITE_TEMPERATURE"> F  </i>
   <i type="logical" name="LADDER"> F  </i>
   <i type="logical" name="LRPAFORCE"> F  </i>
   <i type="logical" name="LFXC"> F  </i>
   <i type="logical" name="LHARTREE"> T  </i>
   <i type="int" name="IBSE">     0</i>
   <v type="int" name="KPOINT">    -1     0     0     0</v>
   <i type="logical" name="LTCTC"> F  </i>
   <i type="logical" name="LTCTE"> F  </i>
   <i type="logical" name="LTETE"> F  </i>
   <i type="logical" name="LTRIPLET"> F  </i>
   <i type="logical" name="LFXCEPS"> F  </i>
   <i type="logical" name="LFXHEG"> F  </i>
   <i type="int" name="NATURALO">     2</i>
   <i type="logical" name="LHOLEGF"> F  </i>
   <i type="logical" name="L2ORDER"> F  </i>
   <i type="logical" name="LDMP1"> F  </i>
   <i type="logical" name="LMP2LT"> F  </i>
   <i type="logical" name="LSMP2LT"> F  </i>
   <i type="logical" name="LGWLF"> F  </i>
   <i name="ENCUTGW">     -2.00000000</i>
   <i name="ENCUTGWSOFT">     -2.00000000</i>
   <i name="ENCUTLF">     -1.00000000</i>
   <i type="logical" name="LESF_SPLINES"> F  </i>
   <i type="int" name="LMAXMP2">    -1</i>
   <i name="SCISSOR">      0.00000000</i>
   <i type="int" name="NOMEGA">     0</i>
   <i type="int" name="NOMEGAR">     0</i>
   <i type="int" name="NBANDSGW">    -1</i>
   <i type="int" name="NBANDSO">    -1</i>
   <i type="int" name="NBANDSV">    -1</i>
   <i type="int" name="NELMGW">     1</i>
   <i type="int" name="NELMHF">     1</i>
   <i type="int" name="DIM">     3</i>
   <i type="int" name="IESPILON">     4</i>
   <i type="int" name="ANTIRES">     0</i>
   <i name="OMEGAMAX">    -30.00000000</i>
   <i name="OMEGAMIN">    -30.00000000</i>
   <i name="OMEGATL">   -200.00000000</i>
   <i type="int" name="OMEGAGRID">     0</i>
   <i name="CSHIFT">     -0.10000000</i>
   <i type="logical" name="LSELFENERGY"> F  </i>
   <i type="logical" name="LSPECTRAL"> F  </i>
   <i type="logical" name="LSPECTRALGW"> F  </i>
   <i type="logical" name="LSINGLES"> F  </i>
   <i type="logical" name="LFERMIGW"> F  </i>
   <i type="logical" name="ODDONLYGW"> F  </i>
   <i type="logical" name="EVENONLYGW"> F  </i>
   <i type="int" name="NKREDLFX">     1</i>
   <i type="int" name="NKREDLFY">     1</i>
   <i type="int" name="NKREDLFZ">     1</i>
   <i type="int" name="MAXMEM">  2800</i>
   <i type="int" name="TELESCOPE">     0</i>
   <i type="int" name="NTAUPAR">    -1</i>
   <i type="int" name="NOMEGAPAR">    -1</i>
   <i name="DAMP_NEWTON">      0.80000001</i>
   <i name="LAMBDA">      1.00000000</i>
  </separator>
  <separator name="External order field" >
   <i name="OFIELD_KAPPA">      0.00000000</i>
   <v name="OFIELD_K">      0.00000000      0.00000000      0.00000000</v>
   <i name="OFIELD_Q6_NEAR">      0.00000000</i>
   <i name="OFIELD_Q6_FAR">      0.00000000</i>
   <i name="OFIELD_A">      0.00000000</i>
  </separator>
  <separator name="optional k-points parameters" >
   <i type="int" name="KPOINTS_OPT_MODE">     1</i>
   <i type="logical" name="LKPOINTS_OPT"> F  </i>
  </separator>
 </parameters>
 <atominfo>
  <atoms>      32 </atoms>
  <types>       2 </types>
  <array name="atoms" >
   <dimension dim="1">ion</dimension>
   <field type="string">element</field>
   <field type="int">atomtype</field>
   <set>
    <rc><c>Ni</c><c>   1</c></rc>
    <rc><c>Ni</c><c>   1</c></rc>
    <rc><c>Ni</c><c>   1</c></rc>
    <rc><c>Ni</c><c>   1</c></rc>
    <rc><c>Ni</c><c>   1</c></rc>
    <rc><c>Ni</c><c>   1</c></rc>
    <rc><c>Ni</c><c>   1</c></rc>
    <rc><c>Ni</c><c>   1</c></rc>
    <rc><c>Ni</c><c>   1</c></rc>
    <rc><c>Ni</c><c>   1</c></rc>
    <rc><c>Ni</c><c>   1</c></rc>
    <rc><c>Ni</c><c>   1</c></rc>
    <rc><c>Ni</c><c>   1</c></rc>
    <rc><c>Ni</c><c>   1</c></rc>
    <rc><c>Ni</c><c>   1</c></rc>
    <rc><c>Ni</c><c>   1</c></rc>
    <rc><c>Ni</c><c>   1</c></rc>
    <rc><c>Ni</c><c>   1</c></rc>
    <rc><c>Ni</c><c>   1</c></rc>
    <rc><c>Ni</c><c>   1</c></rc>
    <rc><c>Ni</c><c>   1</c></rc>
    <rc><c>Ni</c><c>   1</c></rc>
    <rc><c>Ni</c><c>   1</c></rc>
    <rc><c>Ni</c><c>   1</c></rc>
    <rc><c>Ni</c><c>   1</c></rc>
    <rc><c>Ni</c><c>   1</c></rc>
    <rc><c>Ni</c><c>   1</c></rc>
    <rc><c>Ni</c><c>   1</c></rc>
    <rc><c>Ni</c><c>   1</c></rc>
    <rc><c>Ni</c><c>   1</c></rc>
    <rc><c>H </c><c>   2</c></rc>
    <rc><c>H </c><c>   2</c></rc>
   </set>
  </array>
  <array name="atomtypes" >
   <dimension dim="1">type</dimension>
   <field type="int">atomspertype</field>
   <field type="string">element</field>
   <field>mass</field>
   <field>valence</field>
   <field type="string">pseudopotential</field>
   <set>
    <rc><c>  30</c><c>Ni</c><c>     58.69000000</c><c>     10.00000000</c><c>  PAW_PBE Ni 02Aug2007                  </c></rc>
    <rc><c>   2</c><c>H </c><c>      1.00000000</c><c>      1.00000000</c><c>  PAW_PBE H 15Jun2001                   </c></rc>
   </set>
  </array>
 </atominfo>
 <structure name="initialpos" >
  <crystal>
   <varray name="basis" >
    <v>      16.00000000       0.00000000       0.00000000 </v>
    <v>       0.00000000      16.00000000       0.00000000 </v>
    <v>       0.00000000       0.00000000      16.00000000 </v>
   </varray>
   <i name="volume">   4096.00000000 </i>
   <varray name="rec_basis" >
    <v>       0.06250000       0.00000000       0.00000000 </v>
    <v>       0.00000000       0.06250000       0.00000000 </v>
    <v>       0.00000000       0.00000000       0.06250000 </v>
   </varray>
  </crystal>
  <varray name="positions" >
   <v>       0.24519860       0.46644179       0.39361015 </v>
   <v>       0.47572325       0.46498100       0.67899954 </v>
   <v>       0.56542719       0.67870942       0.38850544 </v>
   <v>       0.57151158       0.26480365       0.38532892 </v>
   <v>       0.33790829       0.46730806       0.62462410 </v>
   <v>       0.66091724       0.62039149       0.49096673 </v>
   <v>       0.66274834       0.32558292       0.49161963 </v>
   <v>       0.32902893       0.57548410       0.34758521 </v>
   <v>       0.33265598       0.36074344       0.34589142 </v>
   <v>       0.40193155       0.46945372       0.25367487 </v>
   <v>       0.53678343       0.26342178       0.53248366 </v>
   <v>       0.53206341       0.67754946       0.53404357 </v>
   <v>       0.65614852       0.54989485       0.35848137 </v>
   <v>       0.65907786       0.39771757       0.35888769 </v>
   <v>       0.42388649       0.59459986       0.60035727 </v>
   <v>       0.42696413       0.34229346       0.59552709 </v>
   <v>       0.47030708       0.59470583       0.31099861 </v>
   <v>       0.47352537       0.34469672       0.30790031 </v>
   <v>       0.42806297       0.30071906       0.44421720 </v>
   <v>       0.42298968       0.63651049       0.44663129 </v>
   <v>       0.32215600       0.54318651       0.49681990 </v>
   <v>       0.32418167       0.39224283       0.49454388 </v>
   <v>       0.54419114       0.47086200       0.30544723 </v>
   <v>       0.57285586       0.54765889       0.59441562 </v>
   <v>       0.57382906       0.39636477       0.59010852 </v>
   <v>       0.65832766       0.47347092       0.49140329 </v>
   <v>       0.45299669       0.46977254       0.53620476 </v>
   <v>       0.53727524       0.54742795       0.44153168 </v>
   <v>       0.53866168       0.39396091       0.44004928 </v>
   <v>       0.41332524       0.46913049       0.39488239 </v>
   <v>       0.51491247       0.64166722       0.63073326 </v>
   <v>       0.50634486       0.57564337       0.67288310 </v>
  </varray>
 </structure>
 <calculation>
  <scstep>
   <time name="dav">    1.52    1.58</time>
   <time name="total">    1.77    1.85</time>
   <energy>
    <i name="alphaZ">    113.16553179 </i>
    <i name="ewald">  56800.32436098 </i>
    <i name="hartreedc"> -86622.87460855 </i>
    <i name="XCdc">    937.95532449 </i>
    <i name="pawpsdc">  28888.58386782 </i>
    <i name="pawaedc"> -30893.72677109 </i>
    <i name="eentropy">     -0.01410651 </i>
    <i name="bandstr">    -67.17642687 </i>
    <i name="atom">  32354.87237921 </i>
    <i name="e_fr_energy">   1511.10955128 </i>
    <i name="e_wo_entrp">   1511.12365779 </i>
    <i name="e_0_energy">   1511.11660453 </i>
   </energy>
  </scstep>
  <scstep>
   <time name="dav">    1.55    1.56</time>
   <time name="total">    1.55    1.56</time>
   <energy>
    <i name="e_fr_energy">    -69.36139397 </i>
    <i name="e_wo_entrp">    -69.34472849 </i>
    <i name="e_0_energy">    -69.35306123 </i>
   </energy>
  </scstep>
  <scstep>
   <time name="dav">    1.56    1.58</time>
   <time name="total">    1.56    1.58</time>
   <energy>
    <i name="e_fr_energy">   -152.56939783 </i>
    <i name="e_wo_entrp">   -152.55440115 </i>
    <i name="e_0_energy">   -152.56189949 </i>
   </energy>
  </scstep>
  <scstep>
   <time name="dav">    1.63    1.64</time>
   <time name="total">    1.63    1.64</time>
   <energy>
    <i name="e_fr_energy">   -154.46164203 </i>
    <i name="e_wo_entrp">   -154.44947528 </i>
    <i name="e_0_energy">   -154.45555865 </i>
   </energy>
  </scstep>
  <scstep>
   <time name="dav">    1.65    1.67</time>
   <time name="total">    1.74    1.76</time>
   <energy>
    <i name="e_fr_energy">   -154.50595018 </i>
    <i name="e_wo_entrp">   -154.49381862 </i>
    <i name="e_0_energy">   -154.49988440 </i>
   </energy>
  </scstep>
  <scstep>
   <time name="dav">    1.55    1.55</time>
   <time name="total">    1.86    1.87</time>
   <energy>
    <i name="e_fr_energy">   -168.95904707 </i>
    <i name="e_wo_entrp">   -168.95362772 </i>
    <i name="e_0_energy">   -168.95633739 </i>
   </energy>
  </scstep>
  <scstep>
   <time name="dav">    1.56    1.56</time>
   <time name="total">    1.86    1.88</time>
   <energy>
    <i name="e_fr_energy">   -153.92963147 </i>
    <i name="e_wo_entrp">   -153.91109452 </i>
    <i name="e_0_energy">   -153.92036300 </i>
   </energy>
  </scstep>
  <scstep>
   <time name="dav">    1.56    1.56</time>
   <time name="total">    1.85    1.87</time>
   <energy>
    <i name="e_fr_energy">   -150.17991864 </i>
    <i name="e_wo_entrp">   -150.17090357 </i>
    <i name="e_0_energy">   -150.17541110 </i>
   </energy>
  </scstep>
  <scstep>
   <time name="dav">    1.61    1.62</time>
   <time name="total">    1.91    1.93</time>
   <energy>
    <i name="e_fr_energy">   -145.62211889 </i>
    <i name="e_wo_entrp">   -145.61178429 </i>
    <i name="e_0_energy">   -145.61695159 </i>
   </energy>
  </scstep>
  <scstep>
   <time name="dav">    1.59    1.60</time>
   <time name="total">    1.89    1.91</time>
   <energy>
    <i name="e_fr_energy">   -138.57311725 </i>
    <i name="e_wo_entrp">   -138.56242944 </i>
    <i name="e_0_energy">   -138.56777334 </i>
   </energy>
  </scstep>
  <scstep>
   <time name="dav">    1.59    1.59</time>
   <time name="total">    1.89    1.91</time>
   <energy>
    <i name="e_fr_energy">   -142.67923358 </i>
    <i name="e_wo_entrp">   -142.67053295 </i>
    <i name="e_0_energy">   -142.67488326 </i>
   </energy>
  </scstep>
  <scstep>
   <time name="dav">    1.62    1.62</time>
   <time name="total">    1.92    1.93</time>
   <energy>
    <i name="e_fr_energy">   -136.02799546 </i>
    <i name="e_wo_entrp">   -136.01967408 </i>
    <i name="e_0_energy">   -136.02383477 </i>
   </energy>
  </scstep>
  <scstep>
   <time name="dav">    1.54    1.55</time>
   <time name="total">    1.84    1.86</time>
   <energy>
    <i name="e_fr_energy">   -131.74882529 </i>
    <i name="e_wo_entrp">   -131.74012734 </i>
    <i name="e_0_energy">   -131.74447632 </i>
   </energy>
  </scstep>
  <scstep>
   <time name="dav">    1.62    1.62</time>
   <time name="total">    1.92    1.93</time>
   <energy>
    <i name="e_fr_energy">   -129.37576453 </i>
    <i name="e_wo_entrp">   -129.36692280 </i>
    <i name="e_0_energy">   -129.37134366 </i>
   </energy>
  </scstep>
  <scstep>
   <time name="dav">    1.65    1.65</time>
   <time name="total">    1.95    1.97</time>
   <energy>
    <i name="e_fr_energy">   -128.55640372 </i>
    <i name="e_wo_entrp">   -128.54190563 </i>
    <i name="e_0_energy">   -128.54915467 </i>
   </energy>
  </scstep>
  <scstep>
   <time name="dav">    1.63    1.64</time>
   <time name="total">    1.93    1.95</time>
   <energy>
    <i name="e_fr_energy">   -128.86168417 </i>
    <i name="e_wo_entrp">   -128.85051694 </i>
    <i name="e_0_energy">   -128.85610056 </i>
   </energy>
  </scstep>
  <scstep>
   <time name="dav">    1.54    1.55</time>
   <time name="total">    1.84    1.86</time>
   <energy>
    <i name="e_fr_energy">   -128.83122883 </i>
    <i name="e_wo_entrp">   -128.81602005 </i>
    <i name="e_0_energy">   -128.82362444 </i>
   </energy>
  </scstep>
  <scstep>
   <time name="dav">    1.55    1.55</time>
   <time name="total">    1.85    1.86</time>
   <energy>
    <i name="e_fr_energy">   -128.58485322 </i>
    <i name="e_wo_entrp">   -128.57002440 </i>
    <i name="e_0_energy">   -128.57743881 </i>
   </energy>
  </scstep>
  <scstep>
   <time name="dav">    1.89    1.89</time>
   <time name="total">    2.19    2.21</time>
   <energy>
    <i name="e_fr_energy">   -129.11766118 </i>
    <i name="e_wo_entrp">   -129.10555529 </i>
    <i name="e_0_energy">   -129.11160823 </i>
   </energy>
  </scstep>
  <scstep>
   <time name="dav">    1.53    1.53</time>
   <time name="total">    1.83    1.85</time>
   <energy>
    <i name="e_fr_energy">   -129.63191571 </i>
    <i name="e_wo_entrp">   -129.61789494 </i>
    <i name="e_0_energy">   -129.62490532 </i>
   </energy>
  </scstep>
  <scstep>
   <time name="dav">    1.56    1.56</time>
   <time name="total">    1.85    1.87</time>
   <energy>
    <i name="e_fr_energy">   -129.73042738 </i>
    <i name="e_wo_entrp">   -129.71606387 </i>
    <i name="e_0_energy">   -129.72324563 </i>
   </energy>
  </scstep>
  <scstep>
   <time name="dav">    1.56    1.56</time>
   <time name="total">    1.85    1.87</time>
   <energy>
    <i name="e_fr_energy">   -130.34996921 </i>
    <i name="e_wo_entrp">   -130.34331113 </i>
    <i name="e_0_energy">   -130.34664017 </i>
   </energy>
  </scstep>
  <scstep>
   <time name="dav">    1.60    1.61</time>
   <time name="total">    1.90    1.92</time>
   <energy>
    <i name="e_fr_energy">   -130.78355794 </i>
    <i name="e_wo_entrp">   -130.76952285 </i>
    <i name="e_0_energy">   -130.77654039 </i>
   </energy>
  </scstep>
  <scstep>
   <time name="dav">    1.58    1.58</time>
   <time name="total">    1.88    1.90</time>
   <energy>
    <i name="e_fr_energy">   -130.96407045 </i>
    <i name="e_wo_entrp">   -130.94996456 </i>
    <i name="e_0_energy">   -130.95701751 </i>
   </energy>
  </scstep>
  <scstep>
   <time name="dav">    1.59    1.59</time>
   <time name="total">    1.88    1.90</time>
   <energy>
    <i name="e_fr_energy">   -131.52672016 </i>
    <i name="e_wo_entrp">   -131.51297915 </i>
    <i name="e_0_energy">   -131.51984965 </i>
   </energy>
  </scstep>
  <scstep>
   <time name="dav">    1.57    1.58</time>
   <time name="total">    1.87    1.89</time>
   <energy>
    <i name="e_fr_energy">   -131.97742060 </i>
    <i name="e_wo_entrp">   -131.96961861 </i>
    <i name="e_0_energy">   -131.97351961 </i>
   </energy>
  </scstep>
  <scstep>
   <time name="dav">    1.70    1.70</time>
   <time name="total">    1.99    2.01</time>
   <energy>
    <i name="e_fr_energy">   -132.78122603 </i>
    <i name="e_wo_entrp">   -132.77057987 </i>
    <i name="e_0_energy">   -132.77590295 </i>
   </energy>
  </scstep>
  <scstep>
   <time name="dav">    1.60    1.60</time>
   <time name="total">    1.90    1.92</time>
   <energy>
    <i name="e_fr_energy">   -132.95246644 </i>
    <i name="e_wo_entrp">   -132.94653034 </i>
    <i name="e_0_energy">   -132.94949839 </i>
   </energy>
  </scstep>
  <scstep>
   <time name="dav">    1.55    1.55</time>
   <time name="total">    1.84    1.86</time>
   <energy>
    <i name="e_fr_energy">   -133.24697129 </i>
    <i name="e_wo_entrp">   -133.23650050 </i>
    <i name="e_0_energy">   -133.24173590 </i>
   </energy>
  </scstep>
  <scstep>
   <time name="dav">    1.57    1.58</time>
   <time name="total">    1.87    1.89</time>
   <energy>
    <i name="e_fr_energy">   -133.36052722 </i>
    <i name="e_wo_entrp">   -133.35268957 </i>
    <i name="e_0_energy">   -133.35660840 </i>
   </energy>
  </scstep>
  <scstep>
   <time name="dav">    1.62    1.62</time>
   <time name="total">    1.92    1.94</time>
   <energy>
    <i name="e_fr_energy">   -133.66390166 </i>
    <i name="e_wo_entrp">   -133.65485662 </i>
    <i name="e_0_energy">   -133.65937914 </i>
   </energy>
  </scstep>
  <scstep>
   <time name="dav">    1.54    1.55</time>
   <time name="total">    1.84    1.86</time>
   <energy>
    <i name="e_fr_energy">   -133.81384369 </i>
    <i name="e_wo_entrp">   -133.80555796 </i>
    <i name="e_0_energy">   -133.80970083 </i>
   </energy>
  </scstep>
  <scstep>
   <time name="dav">    1.59    1.59</time>
   <time name="total">    1.90    1.91</time>
   <energy>
    <i name="e_fr_energy">   -134.04558346 </i>
    <i name="e_wo_entrp">   -134.03779754 </i>
    <i name="e_0_energy">   -134.04169050 </i>
   </energy>
  </scstep>
  <scstep>
   <time name="dav">    1.53    1.53</time>
   <time name="total">    1.84    1.85</time>
   <energy>
    <i name="e_fr_energy">   -134.32071091 </i>
    <i name="e_wo_entrp">   -134.31379928 </i>
    <i name="e_0_energy">   -134.31725510 </i>
   </energy>
  </scstep>
  <scstep>
   <time name="dav">    1.53    1.53</time>
   <time name="total">    1.83    1.85</time>
   <energy>
    <i name="e_fr_energy">   -134.48864904 </i>
    <i name="e_wo_entrp">   -134.48119033 </i>
    <i name="e_0_energy">   -134.48491969 </i>
   </energy>
  </scstep>
  <scstep>
   <time name="dav">    1.54    1.55</time>
   <time name="total">    1.84    1.86</time>
   <energy>
    <i name="e_fr_energy">   -134.80618687 </i>
    <i name="e_wo_entrp">   -134.79997673 </i>
    <i name="e_0_energy">   -134.80308180 </i>
   </energy>
  </scstep>
  <scstep>
   <time name="dav">    1.59    1.59</time>
   <time name="total">    1.90    1.91</time>
   <energy>
    <i name="e_fr_energy">   -134.89697459 </i>
    <i name="e_wo_entrp">   -134.88994713 </i>
    <i name="e_0_energy">   -134.89346086 </i>
   </energy>
  </scstep>
  <scstep>
   <time name="dav">    1.53    1.53</time>
   <time name="total">    1.82    1.84</time>
   <energy>
    <i name="e_fr_energy">   -135.09680605 </i>
    <i name="e_wo_entrp">   -135.08974289 </i>
    <i name="e_0_energy">   -135.09327447 </i>
   </energy>
  </scstep>
  <scstep>
   <time name="dav">    1.60    1.61</time>
   <time name="total">    1.90    1.92</time>
   <energy>
    <i name="e_fr_energy">   -135.15525804 </i>
    <i name="e_wo_entrp">   -135.14871039 </i>
    <i name="e_0_energy">   -135.15198422 </i>
   </energy>
  </scstep>
  <scstep>
   <time name="dav">    1.67    1.67</time>
   <time name="total">    1.97    1.98</time>
   <energy>
    <i name="e_fr_energy">   -135.32814787 </i>
    <i name="e_wo_entrp">   -135.32197249 </i>
    <i name="e_0_energy">   -135.32506018 </i>
   </energy>
  </scstep>
  <scstep>
   <time name="dav">    1.62    1.62</time>
   <time name="total">    1.92    1.94</time>
   <energy>
    <i name="e_fr_energy">   -135.36871410 </i>
    <i name="e_wo_entrp">   -135.36269433 </i>
    <i name="e_0_energy">   -135.36570422 </i>
   </energy>
  </scstep>
  <scstep>
   <time name="dav">    1.70    1.71</time>
   <time name="total">    2.00    2.02</time>
   <energy>
    <i name="e_fr_energy">   -135.47704306 </i>
    <i name="e_wo_entrp">   -135.47106839 </i>
    <i name="e_0_energy">   -135.47405572 </i>
   </energy>
  </scstep>
  <scstep>
   <time name="dav">    1.64    1.64</time>
   <time name="total">    1.95    1.96</time>
   <energy>
    <i name="e_fr_energy">   -135.50335491 </i>
    <i name="e_wo_entrp">   -135.49769898 </i>
    <i name="e_0_energy">   -135.50052695 </i>
   </energy>
  </scstep>
  <scstep>
   <time name="dav">    1.79    1.80</time>
   <time name="total">    2.11    2.13</time>
   <energy>
    <i name="e_fr_energy">   -135.53877572 </i>
    <i name="e_wo_entrp">   -135.53280989 </i>
    <i name="e_0_energy">   -135.53579280 </i>
   </energy>
  </scstep>
  <scstep>
   <time name="dav">    1.63    1.64</time>
   <time name="total">    1.94    1.95</time>
   <energy>
    <i name="e_fr_energy">   -135.55743319 </i>
    <i name="e_wo_entrp">   -135.55177954 </i>
    <i name="e_0_energy">   -135.55460636 </i>
   </energy>
  </scstep>
  <scstep>
   <time name="dav">    1.76    1.76</time>
   <time name="total">    2.06    2.08</time>
   <energy>
    <i name="e_fr_energy">   -135.57510679 </i>
    <i name="e_wo_entrp">   -135.56933643 </i>
    <i name="e_0_energy">   -135.57222161 </i>
   </energy>
  </scstep>
  <scstep>
   <time name="dav">    1.65    1.66</time>
   <time name="total">    1.95    1.97</time>
   <energy>
    <i name="e_fr_energy">   -135.57954818 </i>
    <i name="e_wo_entrp">   -135.57378947 </i>
    <i name="e_0_energy">   -135.57666883 </i>
   </energy>
  </scstep>
  <scstep>
   <time name="dav">    1.44    1.44</time>
   <time name="total">    1.74    1.75</time>
   <energy>
    <i name="e_fr_energy">   -135.58309182 </i>
    <i name="e_wo_entrp">   -135.57730458 </i>
    <i name="e_0_energy">   -135.58019820 </i>
   </energy>
  </scstep>
  <scstep>
   <time name="dav">    1.24    1.24</time>
   <time name="total">    1.55    1.56</time>
   <energy>
    <i name="e_fr_energy">   -135.58436514 </i>
    <i name="e_wo_entrp">   -135.57858045 </i>
    <i name="e_0_energy">   -135.58147280 </i>
   </energy>
  </scstep>
  <scstep>
   <time name="dav">    1.27    1.27</time>
   <time name="total">    1.57    1.59</time>
   <energy>
    <i name="e_fr_energy">   -135.58626871 </i>
    <i name="e_wo_entrp">   -135.58050925 </i>
    <i name="e_0_energy">   -135.58338898 </i>
   </energy>
  </scstep>
  <scstep>
   <time name="dav">    1.14    1.15</time>
   <time name="total">    1.44    1.46</time>
   <energy>
    <i name="e_fr_energy">   -135.58684303 </i>
    <i name="e_wo_entrp">   -135.58109287 </i>
    <i name="e_0_energy">   -135.58396795 </i>
   </energy>
  </scstep>
  <scstep>
   <time name="dav">    1.16    1.16</time>
   <time name="total">    1.46    1.48</time>
   <energy>
    <i name="e_fr_energy">   -135.58786756 </i>
    <i name="e_wo_entrp">   -135.58212869 </i>
    <i name="e_0_energy">   -135.58499813 </i>
   </energy>
  </scstep>
  <scstep>
   <time name="dav">    1.16    1.16</time>
   <time name="total">    1.46    1.48</time>
   <energy>
    <i name="e_fr_energy">   -135.58823756 </i>
    <i name="e_wo_entrp">   -135.58250561 </i>
    <i name="e_0_energy">   -135.58537159 </i>
   </energy>
  </scstep>
  <scstep>
   <time name="dav">    1.11    1.11</time>
   <time name="total">    1.41    1.43</time>
   <energy>
    <i name="e_fr_energy">   -135.58890931 </i>
    <i name="e_wo_entrp">   -135.58314915 </i>
    <i name="e_0_energy">   -135.58602923 </i>
   </energy>
  </scstep>
  <scstep>
   <time name="dav">    1.18    1.18</time>
   <time name="total">    1.48    1.50</time>
   <energy>
    <i name="e_fr_energy">   -135.58917842 </i>
    <i name="e_wo_entrp">   -135.58345034 </i>
    <i name="e_0_energy">   -135.58631438 </i>
   </energy>
  </scstep>
  <scstep>
   <time name="dav">    1.11    1.11</time>
   <time name="total">    1.41    1.42</time>
   <energy>
    <i name="e_fr_energy">   -135.58977545 </i>
    <i name="e_wo_entrp">   -135.58402037 </i>
    <i name="e_0_energy">   -135.58689791 </i>
   </energy>
  </scstep>
  <scstep>
   <time name="dav">    1.11    1.12</time>
   <time name="total">    1.43    1.44</time>
   <energy>
    <i name="e_fr_energy">   -135.58992349 </i>
    <i name="e_wo_entrp">   -135.58418336 </i>
    <i name="e_0_energy">   -135.58705342 </i>
   </energy>
  </scstep>
  <scstep>
   <time name="dav">    1.10    1.10</time>
   <time name="total">    1.40    1.41</time>
   <energy>
    <i name="e_fr_energy">   -135.59013194 </i>
    <i name="e_wo_entrp">   -135.58438779 </i>
    <i name="e_0_energy">   -135.58725987 </i>
   </energy>
  </scstep>
  <scstep>
   <time name="dav">    1.12    1.12</time>
   <time name="total">    1.42    1.44</time>
   <energy>
    <i name="e_fr_energy">   -135.59047508 </i>
    <i name="e_wo_entrp">   -135.58473029 </i>
    <i name="e_0_energy">   -135.58760269 </i>
   </energy>
  </scstep>
  <scstep>
   <time name="dav">    1.15    1.15</time>
   <time name="total">    1.45    1.46</time>
   <energy>
    <i name="e_fr_energy">   -135.59066948 </i>
    <i name="e_wo_entrp">   -135.58492521 </i>
    <i name="e_0_energy">   -135.58779735 </i>
   </energy>
  </scstep>
  <scstep>
   <time name="dav">    1.12    1.12</time>
   <time name="total">    1.34    1.35</time>
   <energy>
    <i name="alphaZ">    113.16553179 </i>
    <i name="ewald">  56800.32436098 </i>
    <i name="hartreedc"> -86721.34389689 </i>
    <i name="XCdc">    916.56831241 </i>
    <i name="pawpsdc">  33307.57149252 </i>
    <i name="pawaedc"> -35355.87995351 </i>
    <i name="eentropy">     -0.00573834 </i>
    <i name="bandstr">  -1550.86317428 </i>
    <i name="atom">  32354.87237921 </i>
    <i name="e_fr_energy">   -135.59068610 </i>
    <i name="e_wo_entrp">   -135.58494776 </i>
    <i name="e_0_energy">   -135.58781693 </i>
   </energy>
  </scstep>
  <structure>
   <crystal>
    <varray name="basis" >
     <v>      16.00000000       0.00000000       0.00000000 </v>
     <v>       0.00000000      16.00000000       0.00000000 </v>
     <v>       0.00000000       0.00000000      16.00000000 </v>
    </varray>
    <i name="volume">   4096.00000000 </i>
    <varray name="rec_basis" >
     <v>       0.06250000       0.00000000       0.00000000 </v>
     <v>       0.00000000       0.06250000       0.00000000 </v>
     <v>       0.00000000       0.00000000       0.06250000 </v>
    </varray>
   </crystal>
   <varray name="positions" >
    <v>       0.24519860       0.46644179       0.39361015 </v>
    <v>       0.47572325       0.46498100       0.67899954 </v>
    <v>       0.56542719       0.67870942       0.38850544 </v>
    <v>       0.57151158       0.26480365       0.38532892 </v>
    <v>       0.33790829       0.46730806       0.62462410 </v>
    <v>       0.66091724       0.62039149       0.49096673 </v>
    <v>       0.66274834       0.32558292       0.49161963 </v>
    <v>       0.32902893       0.57548410       0.34758521 </v>
    <v>       0.33265598       0.36074344       0.34589142 </v>
    <v>       0.40193155       0.46945372       0.25367487 </v>
    <v>       0.53678343       0.26342178       0.53248366 </v>
    <v>       0.53206341       0.67754946       0.53404357 </v>
    <v>       0.65614852       0.54989485       0.35848137 </v>
    <v>       0.65907786       0.39771757       0.35888769 </v>
    <v>       0.42388649       0.59459986       0.60035727 </v>
    <v>       0.42696413       0.34229346       0.59552709 </v>
    <v>       0.47030708       0.59470583       0.31099861 </v>
    <v>       0.47352537       0.34469672       0.30790031 </v>
    <v>       0.42806297       0.30071906       0.44421720 </v>
    <v>       0.42298968       0.63651049       0.44663129 </v>
    <v>       0.32215600       0.54318651       0.49681990 </v>
    <v>       0.32418167       0.39224283       0.49454388 </v>
    <v>       0.54419114       0.47086200       0.30544723 </v>
    <v>       0.57285586       0.54765889       0.59441562 </v>
    <v>       0.57382906       0.39636477       0.59010852 </v>
    <v>       0.65832766       0.47347092       0.49140329 </v>
    <v>       0.45299669       0.46977254       0.53620476 </v>
    <v>       0.53727524       0.54742795       0.44153168 </v>
    <v>       0.53866168       0.39396091       0.44004928 </v>
    <v>       0.41332524       0.46913049       0.39488239 </v>
    <v>       0.51491247       0.64166722       0.63073326 </v>
    <v>       0.50634486       0.57564337       0.67288310 </v>
   </varray>
  </structure>
  <varray name="forces" >
   <v>      -0.00739088       0.00272269       0.01055726 </v>
   <v>      -0.01156019       0.22928593       0.04681453 </v>
   <v>       0.01958827      -0.03676017      -0.03757112 </v>
   <v>       0.01378351       0.03337777       0.02393205 </v>
   <v>      -0.05137295      -0.06297010      -0.05924513 </v>
   <v>      -0.04903182      -0.03327771       0.00054759 </v>
   <v>       0.07496968      -0.02070875      -0.02022225 </v>
   <v>       0.00514310       0.00886981       0.00556265 </v>
   <v>       0.00040438      -0.02736335      -0.04929351 </v>
   <v>       0.00600348      -0.01683704       0.03107123 </v>
   <v>      -0.01175112       0.03136415      -0.01541783 </v>
   <v>       0.05262574       0.15029743      -0.20722427 </v>
   <v>       0.01680040      -0.00505235      -0.00530249 </v>
   <v>       0.02248392      -0.01004419       0.01504472 </v>
   <v>       0.06804424       0.01334460       0.25012313 </v>
   <v>      -0.01440888       0.04323430       0.01855646 </v>
   <v>      -0.00033887       0.02257518      -0.08268489 </v>
   <v>      -0.01015898       0.00465894       0.02778119 </v>
   <v>       0.01254752      -0.02236948      -0.04291796 </v>
   <v>      -0.00345473      -0.02269544      -0.00164368 </v>
   <v>       0.00582024       0.03167625       0.04466933 </v>
   <v>      -0.00389857       0.03991292       0.04126862 </v>
   <v>      -0.02114930       0.00275784       0.01681694 </v>
   <v>       0.13514983       0.10819432       0.21213631 </v>
   <v>       0.05729635      -0.12884132      -0.07608796 </v>
   <v>      -0.00084713       0.02418117      -0.01436326 </v>
   <v>      -0.05725125      -0.17349524      -0.14454876 </v>
   <v>      -0.01148625       0.05526507       0.04360837 </v>
   <v>      -0.06058349      -0.02124719      -0.01612813 </v>
   <v>      -0.01427268       0.00458357       0.01767256 </v>
   <v>       0.07822226       0.55137235      -0.31979219 </v>
   <v>      -0.23992584      -0.77601197       0.28628048 </v>
  </varray>
  <varray name="stress" >
   <v>      -0.35525603       0.02449925      -0.11361666 </v>
   <v>       0.02449927      -0.26568041      -0.13169143 </v>
   <v>      -0.11361667      -0.13169147      -0.31828543 </v>
  </varray>
  <energy>
   <i name="e_fr_energy">   -135.59068610 </i>
   <i name="e_wo_entrp">   -135.58494776 </i>
   <i name="e_0_energy">   -135.58781693 </i>
  </energy>
  <time name="totalsc">  111.04  112.23</time>
 </calculation>
 <calculation>
  <scstep>
   <time name="dav">    1.50    1.50</time>
   <time name="total">    1.79    1.80</time>
   <energy>
    <i name="alphaZ">    113.16553179 </i>
    <i name="ewald">  56759.78559190 </i>
    <i name="hartreedc"> -86681.28047344 </i>
    <i name="XCdc">    916.51987080 </i>
    <i name="pawpsdc">  33307.55323988 </i>
    <i name="pawaedc"> -35355.86153223 </i>
    <i name="eentropy">     -0.00524674 </i>
    <i name="bandstr">  -1550.40227379 </i>
    <i name="atom">  32354.87237921 </i>
    <i name="e_fr_energy">   -135.65291261 </i>
    <i name="e_wo_entrp">   -135.64766587 </i>
    <i name="e_0_energy">   -135.65028924 </i>
   </energy>
  </scstep>
  <scstep>
   <time name="dav">    1.91    1.92</time>
   <time name="total">    2.21    2.23</time>
   <energy>
    <i name="e_fr_energy">   -135.68186798 </i>
    <i name="e_wo_entrp">   -135.67530001 </i>
    <i name="e_0_energy">   -135.67858400 </i>
   </energy>
  </scstep>
  <scstep>
   <time name="dav">    1.55    1.55</time>
   <time name="total">    1.84    1.86</time>
   <energy>
    <i name="e_fr_energy">   -135.65943756 </i>
    <i name="e_wo_entrp">   -135.65480753 </i>
    <i name="e_0_energy">   -135.65712254 </i>
   </energy>
  </scstep>
  <scstep>
   <time name="dav">    1.82    1.83</time>
   <time name="total">    2.12    2.14</time>
   <energy>
    <i name="e_fr_energy">   -135.66530178 </i>
    <i name="e_wo_entrp">   -135.65983762 </i>
    <i name="e_0_energy">   -135.66256970 </i>
   </energy>
  </scstep>
  <scstep>
   <time name="dav">    1.62    1.62</time>
   <time name="total">    1.91    1.93</time>
   <energy>
    <i name="e_fr_energy">   -135.66116847 </i>
    <i name="e_wo_entrp">   -135.65590998 </i>
    <i name="e_0_energy">   -135.65853922 </i>
   </energy>
  </scstep>
  <scstep>
   <time name="dav">    1.59    1.59</time>
   <time name="total">    1.89    1.90</time>
   <energy>
    <i name="e_fr_energy">   -135.65996433 </i>
    <i name="e_wo_entrp">   -135.65476593 </i>
    <i name="e_0_energy">   -135.65736513 </i>
   </energy>
  </scstep>
  <scstep>
   <time name="dav">    1.71    1.72</time>
   <time name="total">    2.02    2.03</time>
   <energy>
    <i name="e_fr_energy">   -135.66113340 </i>
    <i name="e_wo_entrp">   -135.65602145 </i>
    <i name="e_0_energy">   -135.65857743 </i>
   </energy>
  </scstep>
  <scstep>
   <time name="dav">    1.59    1.59</time>
   <time name="total">    1.88    1.90</time>
   <energy>
    <i name="e_fr_energy">   -135.66018489 </i>
    <i name="e_wo_entrp">   -135.65473046 </i>
    <i name="e_0_energy">   -135.65745767 </i>
   </energy>
  </scstep>
  <scstep>
   <time name="dav">    1.59    1.59</time>
   <time name="total">    1.88    1.90</time>
   <energy>
    <i name="e_fr_energy">   -135.65982870 </i>
    <i name="e_wo_entrp">   -135.65455870 </i>
    <i name="e_0_energy">   -135.65719370 </i>
   </energy>
  </scstep>
  <scstep>
   <time name="dav">    1.54    1.55</time>
   <time name="total">    1.84    1.85</time>
   <energy>
    <i name="e_fr_energy">   -135.66021995 </i>
    <i name="e_wo_entrp">   -135.65465427 </i>
    <i name="e_0_energy">   -135.65743711 </i>
   </energy>
  </scstep>
  <scstep>
   <time name="dav">    1.51    1.52</time>
   <time name="total">    1.81    1.83</time>
   <energy>
    <i name="e_fr_energy">   -135.65988601 </i>
    <i name="e_wo_entrp">   -135.65467558 </i>
    <i name="e_0_energy">   -135.65728080 </i>
   </energy>
  </scstep>
  <scstep>
   <time name="dav">    1.12    1.12</time>
   <time name="total">    1.34    1.36</time>
   <energy>
    <i name="alphaZ">    113.16553179 </i>
    <i name="ewald">  56759.78559190 </i>
    <i name="hartreedc"> -86680.52375049 </i>
    <i name="XCdc">    916.51249595 </i>
    <i name="pawpsdc">  33300.13905855 </i>
    <i name="pawaedc"> -35348.39826754 </i>
    <i name="eentropy">     -0.00520439 </i>
    <i name="bandstr">  -1551.20773625 </i>
    <i name="atom">  32354.87237921 </i>
    <i name="e_fr_energy">   -135.65990127 </i>
    <i name="e_wo_entrp">   -135.65469687 </i>
    <i name="e_0_energy">   -135.65729907 </i>
   </energy>
  </scstep>
  <structure>
   <crystal>
    <varray name="basis" >
     <v>      16.00000000       0.00000000       0.00000000 </v>
     <v>       0.00000000      16.00000000       0.00000000 </v>
     <v>       0.00000000       0.00000000      16.00000000 </v>
    </varray>
    <i name="volume">   4096.00000000 </i>
    <varray name="rec_basis" >
     <v>       0.06250000       0.00000000       0.00000000 </v>
     <v>       0.00000000       0.06250000       0.00000000 </v>
     <v>       0.00000000       0.00000000       0.06250000 </v>
    </varray>
   </crystal>
   <varray name="positions" >
    <v>       0.24517631       0.46644999       0.39364199 </v>
    <v>       0.47568839       0.46567233       0.67914069 </v>
    <v>       0.56548625       0.67859858       0.38839215 </v>
    <v>       0.57155314       0.26490429       0.38540108 </v>
    <v>       0.33775340       0.46711820       0.62444547 </v>
    <v>       0.66076940       0.62029116       0.49096838 </v>
    <v>       0.66297438       0.32552048       0.49155865 </v>
    <v>       0.32904444       0.57551085       0.34760199 </v>
    <v>       0.33265720       0.36066093       0.34574279 </v>
    <v>       0.40194965       0.46940296       0.25376855 </v>
    <v>       0.53674800       0.26351635       0.53243717 </v>
    <v>       0.53222209       0.67800264       0.53341875 </v>
    <v>       0.65619917       0.54987962       0.35846538 </v>
    <v>       0.65914566       0.39768729       0.35893305 </v>
    <v>       0.42409166       0.59464010       0.60111143 </v>
    <v>       0.42692069       0.34242382       0.59558304 </v>
    <v>       0.47030606       0.59477390       0.31074930 </v>
    <v>       0.47349474       0.34471077       0.30798407 </v>
    <v>       0.42810081       0.30065161       0.44408779 </v>
    <v>       0.42297926       0.63644205       0.44662633 </v>
    <v>       0.32217355       0.54328202       0.49695458 </v>
    <v>       0.32416992       0.39236317       0.49466831 </v>
    <v>       0.54412737       0.47087031       0.30549794 </v>
    <v>       0.57326335       0.54798512       0.59505524 </v>
    <v>       0.57400182       0.39597629       0.58987910 </v>
    <v>       0.65832511       0.47354383       0.49135999 </v>
    <v>       0.45282407       0.46924943       0.53576892 </v>
    <v>       0.53724061       0.54759458       0.44166317 </v>
    <v>       0.53847901       0.39389684       0.44000066 </v>
    <v>       0.41328221       0.46914431       0.39493567 </v>
    <v>       0.51514832       0.64332970       0.62976903 </v>
    <v>       0.50562145       0.57330356       0.67374628 </v>
   </varray>
  </structure>
  <varray name="forces" >
   <v>       0.00809228      -0.00004049       0.00982367 </v>
   <v>      -0.00253415       0.17361939      -0.00025279 </v>
   <v>       0.02710253      -0.01559524      -0.07815479 </v>
   <v>       0.02032941       0.02028985       0.01198683 </v>
   <v>      -0.01949198      -0.03634601      -0.03810011 </v>
   <v>      -0.02180407      -0.02295339       0.00428831 </v>
   <v>       0.06610114      -0.01604701      -0.02670734 </v>
   <v>       0.00339350       0.00501569       0.00708707 </v>
   <v>      -0.01288113      -0.01186004      -0.03079687 </v>
   <v>      -0.00287630      -0.01416083       0.01821168 </v>
   <v>      -0.00681575       0.01609561      -0.01208222 </v>
   <v>       0.01721468       0.08713574      -0.11797690 </v>
   <v>       0.00480299      -0.01116668      -0.00752350 </v>
   <v>       0.00502589      -0.00112635       0.01732720 </v>
   <v>       0.13623026      -0.02594382       0.16353637 </v>
   <v>      -0.01353807       0.00099668       0.03061219 </v>
   <v>      -0.00245071       0.01674364      -0.05609527 </v>
   <v>      -0.00326010      -0.00116189       0.01899440 </v>
   <v>      -0.01517500      -0.02171839      -0.02573713 </v>
   <v>      -0.00524412      -0.01853670       0.00114184 </v>
   <v>       0.01182166       0.03143655       0.03766202 </v>
   <v>      -0.01723482       0.01171496       0.00712785 </v>
   <v>      -0.00244874       0.01007622       0.02408701 </v>
   <v>       0.06226947       0.09716279       0.13229256 </v>
   <v>       0.00947137      -0.03076302      -0.04042013 </v>
   <v>      -0.02056251       0.00511130      -0.00355985 </v>
   <v>      -0.01544728      -0.02461118      -0.00432285 </v>
   <v>      -0.01293807       0.00514565       0.04960379 </v>
   <v>      -0.00102866      -0.00342268      -0.02839937 </v>
   <v>      -0.02340463       0.01180706      -0.01636833 </v>
   <v>       0.04897857       0.50522857      -0.32363692 </v>
   <v>      -0.22169768      -0.74212598       0.27635160 </v>
  </varray>
  <varray name="stress" >
   <v>      -0.52757384       0.03423323      -0.11808830 </v>
   <v>       0.03423320      -0.39090087      -0.16653613 </v>
   <v>      -0.11808831      -0.16653612      -0.42219441 </v>
  </varray>
  <energy>
   <i name="e_fr_energy">   -135.65990127 </i>
   <i name="e_wo_entrp">   -135.65469687 </i>
   <i name="e_0_energy">   -135.65729907 </i>
  </energy>
  <time name="totalsc">   24.59   24.86</time>
 </calculation>
 <calculation>
  <scstep>
   <time name="dav">    1.48    1.48</time>
   <time name="total">    1.77    1.78</time>
   <energy>
    <i name="alphaZ">    113.16553179 </i>
    <i name="ewald">  56638.84860356 </i>
    <i name="hartreedc"> -86560.33058673 </i>
    <i name="XCdc">    916.40766673 </i>
    <i name="pawpsdc">  33300.07011276 </i>
    <i name="pawaedc"> -35348.32611409 </i>
    <i name="eentropy">     -0.00402161 </i>
    <i name="bandstr">  -1550.41523125 </i>
    <i name="atom">  32354.87237921 </i>
    <i name="e_fr_energy">   -135.71165961 </i>
    <i name="e_wo_entrp">   -135.70763801 </i>
    <i name="e_0_energy">   -135.70964881 </i>
   </energy>
  </scstep>
  <scstep>
   <time name="dav">    1.94    1.94</time>
   <time name="total">    2.24    2.26</time>
   <energy>
    <i name="e_fr_energy">   -135.99470209 </i>
    <i name="e_wo_entrp">   -135.98598337 </i>
    <i name="e_0_energy">   -135.99034273 </i>
   </energy>
  </scstep>
  <scstep>
   <time name="dav">    1.54    1.55</time>
   <time name="total">    1.83    1.85</time>
   <energy>
    <i name="e_fr_energy">   -135.77959733 </i>
    <i name="e_wo_entrp">   -135.77662713 </i>
    <i name="e_0_energy">   -135.77811223 </i>
   </energy>
  </scstep>
  <scstep>
   <time name="dav">    1.82    1.83</time>
   <time name="total">    2.12    2.14</time>
   <energy>
    <i name="e_fr_energy">   -135.82407754 </i>
    <i name="e_wo_entrp">   -135.81938449 </i>
    <i name="e_0_energy">   -135.82173101 </i>
   </energy>
  </scstep>
  <scstep>
   <time name="dav">    1.58    1.58</time>
   <time name="total">    1.88    1.89</time>
   <energy>
    <i name="e_fr_energy">   -135.78752668 </i>
    <i name="e_wo_entrp">   -135.78280636 </i>
    <i name="e_0_energy">   -135.78516652 </i>
   </energy>
  </scstep>
  <scstep>
   <time name="dav">    1.57    1.57</time>
   <time name="total">    1.86    1.88</time>
   <energy>
    <i name="e_fr_energy">   -135.77717196 </i>
    <i name="e_wo_entrp">   -135.77328336 </i>
    <i name="e_0_energy">   -135.77522766 </i>
   </energy>
  </scstep>
  <scstep>
   <time name="dav">    1.73    1.74</time>
   <time name="total">    2.03    2.04</time>
   <energy>
    <i name="e_fr_energy">   -135.78707229 </i>
    <i name="e_wo_entrp">   -135.78229562 </i>
    <i name="e_0_energy">   -135.78468396 </i>
   </energy>
  </scstep>
  <scstep>
   <time name="dav">    1.63    1.63</time>
   <time name="total">    1.92    1.94</time>
   <energy>
    <i name="e_fr_energy">   -135.77855496 </i>
    <i name="e_wo_entrp">   -135.77475681 </i>
    <i name="e_0_energy">   -135.77665589 </i>
   </energy>
  </scstep>
  <scstep>
   <time name="dav">    1.64    1.64</time>
   <time name="total">    1.93    1.95</time>
   <energy>
    <i name="e_fr_energy">   -135.77490835 </i>
    <i name="e_wo_entrp">   -135.77072433 </i>
    <i name="e_0_energy">   -135.77281634 </i>
   </energy>
  </scstep>
  <scstep>
   <time name="dav">    1.74    1.75</time>
   <time name="total">    2.04    2.06</time>
   <energy>
    <i name="e_fr_energy">   -135.77873885 </i>
    <i name="e_wo_entrp">   -135.77439629 </i>
    <i name="e_0_energy">   -135.77656757 </i>
   </energy>
  </scstep>
  <scstep>
   <time name="dav">    1.59    1.60</time>
   <time name="total">    1.89    1.91</time>
   <energy>
    <i name="e_fr_energy">   -135.77533025 </i>
    <i name="e_wo_entrp">   -135.77174204 </i>
    <i name="e_0_energy">   -135.77353614 </i>
   </energy>
  </scstep>
  <scstep>
   <time name="dav">    1.67    1.67</time>
   <time name="total">    1.99    2.00</time>
   <energy>
    <i name="e_fr_energy">   -135.77495334 </i>
    <i name="e_wo_entrp">   -135.77095573 </i>
    <i name="e_0_energy">   -135.77295454 </i>
   </energy>
  </scstep>
  <scstep>
   <time name="dav">    1.69    1.69</time>
   <time name="total">    1.98    2.00</time>
   <energy>
    <i name="e_fr_energy">   -135.77602129 </i>
    <i name="e_wo_entrp">   -135.77213528 </i>
    <i name="e_0_energy">   -135.77407829 </i>
   </energy>
  </scstep>
  <scstep>
   <time name="dav">    1.56    1.56</time>
   <time name="total">    1.86    1.88</time>
   <energy>
    <i name="e_fr_energy">   -135.77601676 </i>
    <i name="e_wo_entrp">   -135.77202331 </i>
    <i name="e_0_energy">   -135.77402004 </i>
   </energy>
  </scstep>
  <scstep>
   <time name="dav">    1.33    1.33</time>
   <time name="total">    1.62    1.64</time>
   <energy>
    <i name="e_fr_energy">   -135.77628107 </i>
    <i name="e_wo_entrp">   -135.77242412 </i>
    <i name="e_0_energy">   -135.77435260 </i>
   </energy>
  </scstep>
  <scstep>
   <time name="dav">    1.14    1.15</time>
   <time name="total">    1.44    1.46</time>
   <energy>
    <i name="e_fr_energy">   -135.77684106 </i>
    <i name="e_wo_entrp">   -135.77287770 </i>
    <i name="e_0_energy">   -135.77485938 </i>
   </energy>
  </scstep>
  <scstep>
   <time name="dav">    1.19    1.19</time>
   <time name="total">    1.49    1.51</time>
   <energy>
    <i name="e_fr_energy">   -135.77728463 </i>
    <i name="e_wo_entrp">   -135.77341578 </i>
    <i name="e_0_energy">   -135.77535021 </i>
   </energy>
  </scstep>
  <scstep>
   <time name="dav">    1.17    1.17</time>
   <time name="total">    1.50    1.52</time>
   <energy>
    <i name="e_fr_energy">   -135.77755853 </i>
    <i name="e_wo_entrp">   -135.77366217 </i>
    <i name="e_0_energy">   -135.77561035 </i>
   </energy>
  </scstep>
  <scstep>
   <time name="dav">    1.15    1.15</time>
   <time name="total">    1.47    1.49</time>
   <energy>
    <i name="e_fr_energy">   -135.77814939 </i>
    <i name="e_wo_entrp">   -135.77419379 </i>
    <i name="e_0_energy">   -135.77617159 </i>
   </energy>
  </scstep>
  <scstep>
   <time name="dav">    1.16    1.16</time>
   <time name="total">    1.46    1.47</time>
   <energy>
    <i name="e_fr_energy">   -135.77835193 </i>
    <i name="e_wo_entrp">   -135.77447855 </i>
    <i name="e_0_energy">   -135.77641524 </i>
   </energy>
  </scstep>
  <scstep>
   <time name="dav">    1.13    1.13</time>
   <time name="total">    1.43    1.45</time>
   <energy>
    <i name="e_fr_energy">   -135.77865174 </i>
    <i name="e_wo_entrp">   -135.77477167 </i>
    <i name="e_0_energy">   -135.77671171 </i>
   </energy>
  </scstep>
  <scstep>
   <time name="dav">    1.13    1.13</time>
   <time name="total">    1.42    1.44</time>
   <energy>
    <i name="e_fr_energy">   -135.77890118 </i>
    <i name="e_wo_entrp">   -135.77501292 </i>
    <i name="e_0_energy">   -135.77695705 </i>
   </energy>
  </scstep>
  <scstep>
   <time name="dav">    1.12    1.12</time>
   <time name="total">    1.42    1.43</time>
   <energy>
    <i name="e_fr_energy">   -135.77902662 </i>
    <i name="e_wo_entrp">   -135.77515707 </i>
    <i name="e_0_energy">   -135.77709185 </i>
   </energy>
  </scstep>
  <scstep>
   <time name="dav">    1.15    1.15</time>
   <time name="total">    1.45    1.47</time>
   <energy>
    <i name="e_fr_energy">   -135.77928465 </i>
    <i name="e_wo_entrp">   -135.77540919 </i>
    <i name="e_0_energy">   -135.77734692 </i>
   </energy>
  </scstep>
  <scstep>
   <time name="dav">    1.12    1.12</time>
   <time name="total">    1.33    1.35</time>
   <energy>
    <i name="alphaZ">    113.16553179 </i>
    <i name="ewald">  56638.84860356 </i>
    <i name="hartreedc"> -86558.45396380 </i>
    <i name="XCdc">    916.40330784 </i>
    <i name="pawpsdc">  33285.70718714 </i>
    <i name="pawaedc"> -35333.85409979 </i>
    <i name="eentropy">     -0.00387682 </i>
    <i name="bandstr">  -1552.46444084 </i>
    <i name="atom">  32354.87237921 </i>
    <i name="e_fr_energy">   -135.77937169 </i>
    <i name="e_wo_entrp">   -135.77549488 </i>
    <i name="e_0_energy">   -135.77743328 </i>
   </energy>
  </scstep>
  <structure>
   <crystal>
    <varray name="basis" >
     <v>      16.00000000       0.00000000       0.00000000 </v>
     <v>       0.00000000      16.00000000       0.00000000 </v>
     <v>       0.00000000       0.00000000      16.00000000 </v>
    </varray>
    <i name="volume">   4096.00000000 </i>
    <varray name="rec_basis" >
     <v>       0.06250000       0.00000000       0.00000000 </v>
     <v>       0.00000000       0.06250000       0.00000000 </v>
     <v>       0.00000000       0.00000000       0.06250000 </v>
    </varray>
   </crystal>
   <varray name="positions" >
    <v>       0.24510946       0.46647462       0.39373748 </v>
    <v>       0.47558383       0.46774634       0.67956415 </v>
    <v>       0.56566344       0.67826607       0.38805231 </v>
    <v>       0.57167782       0.26520620       0.38561756 </v>
    <v>       0.33728870       0.46654860       0.62390957 </v>
    <v>       0.66032588       0.61999014       0.49097333 </v>
    <v>       0.66365252       0.32533316       0.49137573 </v>
    <v>       0.32909096       0.57559108       0.34765230 </v>
    <v>       0.33266086       0.36041342       0.34529690 </v>
    <v>       0.40200395       0.46925066       0.25404961 </v>
    <v>       0.53664170       0.26380005       0.53229771 </v>
    <v>       0.53269811       0.67936215       0.53154431 </v>
    <v>       0.65635114       0.54983392       0.35841741 </v>
    <v>       0.65934904       0.39759643       0.35906914 </v>
    <v>       0.42470715       0.59476081       0.60337392 </v>
    <v>       0.42679035       0.34281490       0.59575089 </v>
    <v>       0.47030299       0.59497811       0.31000138 </v>
    <v>       0.47340284       0.34475291       0.30823537 </v>
    <v>       0.42821430       0.30044926       0.44369958 </v>
    <v>       0.42294801       0.63623676       0.44661146 </v>
    <v>       0.32222620       0.54356855       0.49735864 </v>
    <v>       0.32413465       0.39272421       0.49504161 </v>
    <v>       0.54393606       0.47089526       0.30565006 </v>
    <v>       0.57448585       0.54896379       0.59697412 </v>
    <v>       0.57452009       0.39481086       0.58919085 </v>
    <v>       0.65831744       0.47376256       0.49123006 </v>
    <v>       0.45230620       0.46768008       0.53446140 </v>
    <v>       0.53713671       0.54809448       0.44205763 </v>
    <v>       0.53793100       0.39370465       0.43985477 </v>
    <v>       0.41315311       0.46918577       0.39509553 </v>
    <v>       0.51585588       0.64831713       0.62687635 </v>
    <v>       0.50345120       0.56628415       0.67633583 </v>
   </varray>
  </structure>
  <varray name="forces" >
   <v>       0.06366226      -0.00361906       0.00799036 </v>
   <v>      -0.05387522      -0.27294200      -0.12753497 </v>
   <v>       0.04852192       0.04398976      -0.20620875 </v>
   <v>       0.04045901      -0.02270898      -0.02528517 </v>
   <v>       0.07961713       0.04774077       0.03865668 </v>
   <v>       0.07198036       0.02693658       0.02227075 </v>
   <v>       0.03870970      -0.00720660      -0.04866324 </v>
   <v>      -0.00108875      -0.00393317       0.00983647 </v>
   <v>      -0.05069116       0.03648951       0.03090329 </v>
   <v>      -0.02864470      -0.00310363      -0.01891882 </v>
   <v>       0.00523688      -0.03862984      -0.00112775 </v>
   <v>      -0.07638533      -0.06858134       0.08961266 </v>
   <v>      -0.03824183      -0.03139966      -0.00750983 </v>
   <v>      -0.04595451       0.02096896       0.02052968 </v>
   <v>       0.26635297      -0.10019475      -0.14788479 </v>
   <v>      -0.00957990      -0.13110203       0.06395334 </v>
   <v>      -0.01282549      -0.00501359       0.03482853 </v>
   <v>       0.02005214      -0.02152306      -0.01292003 </v>
   <v>      -0.10045958      -0.02592302       0.02420372 </v>
   <v>      -0.01269535       0.00444377       0.00592586 </v>
   <v>       0.03336563       0.02662391       0.01185822 </v>
   <v>      -0.06027029      -0.07865988      -0.10010746 </v>
   <v>       0.04940704       0.03149899       0.04168068 </v>
   <v>      -0.12075395       0.04756332      -0.14964719 </v>
   <v>      -0.11432698       0.25007673       0.07979471 </v>
   <v>      -0.06978017      -0.05841669       0.03472870 </v>
   <v>       0.10907246       0.42030454       0.41610890 </v>
   <v>      -0.02803650      -0.15395740       0.06696765 </v>
   <v>       0.18230225       0.05108491      -0.06582299 </v>
   <v>      -0.05097944       0.04045807      -0.13245539 </v>
   <v>      -0.04407688       0.33870059      -0.21728407 </v>
   <v>      -0.09007370      -0.35996571       0.26152024 </v>
  </varray>
  <varray name="stress" >
   <v>      -0.78928396       0.08459816      -0.09128418 </v>
   <v>       0.08459817      -0.45720713      -0.31552211 </v>
   <v>      -0.09128418      -0.31552211      -0.42179269 </v>
  </varray>
  <energy>
   <i name="e_fr_energy">   -135.77937169 </i>
   <i name="e_wo_entrp">   -135.77549488 </i>
   <i name="e_0_energy">   -135.77743328 </i>
  </energy>
  <time name="totalsc">   45.41   45.92</time>
 </calculation>
 <calculation>
  <scstep>
   <time name="dav">    1.48    1.48</time>
   <time name="total">    1.77    1.78</time>
   <energy>
    <i name="alphaZ">    113.16553179 </i>
    <i name="ewald">  56622.78652913 </i>
    <i name="hartreedc"> -86542.17967960 </i>
    <i name="XCdc">    916.40683574 </i>
    <i name="pawpsdc">  33285.70156058 </i>
    <i name="pawaedc"> -35333.84874507 </i>
    <i name="eentropy">     -0.00322173 </i>
    <i name="bandstr">  -1552.72322547 </i>
    <i name="atom">  32354.87237921 </i>
    <i name="e_fr_energy">   -135.82203542 </i>
    <i name="e_wo_entrp">   -135.81881368 </i>
    <i name="e_0_energy">   -135.82042455 </i>
   </energy>
  </scstep>
  <scstep>
   <time name="dav">    1.81    1.82</time>
   <time name="total">    2.11    2.12</time>
   <energy>
    <i name="e_fr_energy">   -135.89817306 </i>
    <i name="e_wo_entrp">   -135.89281304 </i>
    <i name="e_0_energy">   -135.89549305 </i>
   </energy>
  </scstep>
  <scstep>
   <time name="dav">    1.61    1.61</time>
   <time name="total">    1.91    1.92</time>
   <energy>
    <i name="e_fr_energy">   -135.82986806 </i>
    <i name="e_wo_entrp">   -135.82619424 </i>
    <i name="e_0_energy">   -135.82803115 </i>
   </energy>
  </scstep>
  <scstep>
   <time name="dav">    1.84    1.84</time>
   <time name="total">    2.13    2.15</time>
   <energy>
    <i name="e_fr_energy">   -135.84085124 </i>
    <i name="e_wo_entrp">   -135.83812348 </i>
    <i name="e_0_energy">   -135.83948736 </i>
   </energy>
  </scstep>
  <scstep>
   <time name="dav">    1.61    1.61</time>
   <time name="total">    1.91    1.92</time>
   <energy>
    <i name="e_fr_energy">   -135.83814036 </i>
    <i name="e_wo_entrp">   -135.83448778 </i>
    <i name="e_0_energy">   -135.83631407 </i>
   </energy>
  </scstep>
  <scstep>
   <time name="dav">    1.56    1.56</time>
   <time name="total">    1.85    1.87</time>
   <energy>
    <i name="e_fr_energy">   -135.83401956 </i>
    <i name="e_wo_entrp">   -135.83093885 </i>
    <i name="e_0_energy">   -135.83247921 </i>
   </energy>
  </scstep>
  <scstep>
   <time name="dav">    1.73    1.74</time>
   <time name="total">    2.03    2.05</time>
   <energy>
    <i name="e_fr_energy">   -135.83619681 </i>
    <i name="e_wo_entrp">   -135.83290435 </i>
    <i name="e_0_energy">   -135.83455058 </i>
   </energy>
  </scstep>
  <scstep>
   <time name="dav">    1.60    1.60</time>
   <time name="total">    1.90    1.92</time>
   <energy>
    <i name="e_fr_energy">   -135.83605585 </i>
    <i name="e_wo_entrp">   -135.83332574 </i>
    <i name="e_0_energy">   -135.83469079 </i>
   </energy>
  </scstep>
  <scstep>
   <time name="dav">    1.56    1.56</time>
   <time name="total">    1.86    1.87</time>
   <energy>
    <i name="e_fr_energy">   -135.83407705 </i>
    <i name="e_wo_entrp">   -135.83097719 </i>
    <i name="e_0_energy">   -135.83252712 </i>
   </energy>
  </scstep>
  <scstep>
   <time name="dav">    1.70    1.71</time>
   <time name="total">    2.01    2.02</time>
   <energy>
    <i name="e_fr_energy">   -135.83490177 </i>
    <i name="e_wo_entrp">   -135.83148822 </i>
    <i name="e_0_energy">   -135.83319500 </i>
   </energy>
  </scstep>
  <scstep>
   <time name="dav">    1.62    1.63</time>
   <time name="total">    1.92    1.94</time>
   <energy>
    <i name="e_fr_energy">   -135.83466821 </i>
    <i name="e_wo_entrp">   -135.83169492 </i>
    <i name="e_0_energy">   -135.83318157 </i>
   </energy>
  </scstep>
  <scstep>
   <time name="dav">    1.41    1.41</time>
   <time name="total">    1.70    1.72</time>
   <energy>
    <i name="e_fr_energy">   -135.83455196 </i>
    <i name="e_wo_entrp">   -135.83138705 </i>
    <i name="e_0_energy">   -135.83296950 </i>
   </energy>
  </scstep>
  <scstep>
   <time name="dav">    1.18    1.18</time>
   <time name="total">    1.48    1.49</time>
   <energy>
    <i name="e_fr_energy">   -135.83475910 </i>
    <i name="e_wo_entrp">   -135.83150358 </i>
    <i name="e_0_energy">   -135.83313134 </i>
   </energy>
  </scstep>
  <scstep>
   <time name="dav">    1.13    1.14</time>
   <time name="total">    1.36    1.37</time>
   <energy>
    <i name="alphaZ">    113.16553179 </i>
    <i name="ewald">  56622.78652913 </i>
    <i name="hartreedc"> -86541.73001270 </i>
    <i name="XCdc">    916.40683416 </i>
    <i name="pawpsdc">  33289.54567887 </i>
    <i name="pawaedc"> -35337.73487551 </i>
    <i name="eentropy">     -0.00313945 </i>
    <i name="bandstr">  -1553.14374555 </i>
    <i name="atom">  32354.87237921 </i>
    <i name="e_fr_energy">   -135.83482004 </i>
    <i name="e_wo_entrp">   -135.83168059 </i>
    <i name="e_0_energy">   -135.83325031 </i>
   </energy>
  </scstep>
  <structure>
   <crystal>
    <varray name="basis" >
     <v>      16.00000000       0.00000000       0.00000000 </v>
     <v>       0.00000000      16.00000000       0.00000000 </v>
     <v>       0.00000000       0.00000000      16.00000000 </v>
    </varray>
    <i name="volume">   4096.00000000 </i>
    <varray name="rec_basis" >
     <v>       0.06250000       0.00000000       0.00000000 </v>
     <v>       0.00000000       0.06250000       0.00000000 </v>
     <v>       0.00000000       0.00000000       0.06250000 </v>
    </varray>
   </crystal>
   <varray name="positions" >
    <v>       0.24529396       0.46646916       0.39378570 </v>
    <v>       0.47538883       0.46738640       0.67926437 </v>
    <v>       0.56585909       0.67832450       0.38732050 </v>
    <v>       0.57183539       0.26520746       0.38559008 </v>
    <v>       0.33742753       0.46656167       0.62390214 </v>
    <v>       0.66044575       0.62000243       0.49104471 </v>
    <v>       0.66393806       0.32526527       0.49117826 </v>
    <v>       0.32909875       0.57559803       0.34769544 </v>
    <v>       0.33250199       0.36046871       0.34528675 </v>
    <v>       0.40192678       0.46920414       0.25405777 </v>
    <v>       0.53663257       0.26374674       0.53226052 </v>
    <v>       0.53257220       0.67947391       0.53137463 </v>
    <v>       0.65626728       0.54972394       0.35838218 </v>
    <v>       0.65925327       0.39764060       0.35916666 </v>
    <v>       0.42569498       0.59447417       0.60345355 </v>
    <v>       0.42672873       0.34249607       0.59599291 </v>
    <v>       0.47026184       0.59501156       0.30993075 </v>
    <v>       0.47344387       0.34469525       0.30825526 </v>
    <v>       0.42792509       0.30031877       0.44368222 </v>
    <v>       0.42290047       0.63620125       0.44662655 </v>
    <v>       0.32234405       0.54372156       0.49749346 </v>
    <v>       0.32393621       0.39256339       0.49481616 </v>
    <v>       0.54404562       0.47100054       0.30581810 </v>
    <v>       0.57440015       0.54934972       0.59696532 </v>
    <v>       0.57428480       0.39531786       0.58927632 </v>
    <v>       0.65809569       0.47363122       0.49130817 </v>
    <v>       0.45252503       0.46862612       0.53545737 </v>
    <v>       0.53702330       0.54772987       0.44236380 </v>
    <v>       0.53837334       0.39381929       0.43961215 </v>
    <v>       0.41296131       0.46932327       0.39471667 </v>
    <v>       0.51588763       0.65058739       0.62549394 </v>
    <v>       0.50264392       0.56345681       0.67778453 </v>
   </varray>
  </structure>
  <varray name="forces" >
   <v>       0.03594150       0.01390659       0.00418838 </v>
   <v>      -0.05165758      -0.40683640       0.00692293 </v>
   <v>       0.03954775      -0.02226388      -0.12522782 </v>
   <v>       0.02530453      -0.02667150      -0.02061747 </v>
   <v>       0.02403170       0.03339999       0.03661276 </v>
   <v>       0.02617448       0.01979997      -0.01524706 </v>
   <v>      -0.00219228      -0.00006307      -0.01327527 </v>
   <v>      -0.01706679       0.01779685       0.00403602 </v>
   <v>      -0.03783330       0.00754173       0.00933918 </v>
   <v>      -0.01404935       0.00071619      -0.04918305 </v>
   <v>       0.00880826       0.01013877      -0.00457092 </v>
   <v>      -0.02460594      -0.02941438      -0.06871069 </v>
   <v>      -0.03414024      -0.01214767       0.01712762 </v>
   <v>       0.00799597       0.01552157      -0.01528156 </v>
   <v>       0.14781530       0.02761254      -0.10518599 </v>
   <v>      -0.00915297      -0.08177503      -0.01526074 </v>
   <v>      -0.00903965      -0.01235074       0.04662144 </v>
   <v>       0.01362899      -0.00441701       0.00969421 </v>
   <v>      -0.02574165       0.01380005       0.02612011 </v>
   <v>       0.01922787       0.00924351      -0.01059289 </v>
   <v>       0.02894758      -0.00010448       0.00694613 </v>
   <v>       0.01687202      -0.02701390      -0.04885935 </v>
   <v>       0.01354670       0.02128655       0.00755061 </v>
   <v>      -0.06361867       0.01748396      -0.12828041 </v>
   <v>      -0.08013748       0.16142494       0.04346229 </v>
   <v>      -0.02295729      -0.03015405       0.04469666 </v>
   <v>       0.06818770       0.17011365       0.09618776 </v>
   <v>      -0.00751211      -0.03623431       0.00280462 </v>
   <v>       0.00097021       0.02813615       0.01886635 </v>
   <v>       0.01408614      -0.00094568       0.07021702 </v>
   <v>      -0.07986801       0.26139256      -0.04951619 </v>
   <v>      -0.01151337      -0.13892347       0.21841531 </v>
  </varray>
  <varray name="stress" >
   <v>      -0.77280850       0.05140308      -0.08043708 </v>
   <v>       0.05140310      -0.36382639      -0.27589417 </v>
   <v>      -0.08043709      -0.27589419      -0.46237808 </v>
  </varray>
  <energy>
   <i name="e_fr_energy">   -135.83482004 </i>
   <i name="e_wo_entrp">   -135.83168059 </i>
   <i name="e_0_energy">   -135.83325031 </i>
  </energy>
  <time name="totalsc">   27.99   28.27</time>
 </calculation>
 <calculation>
  <scstep>
   <time name="dav">    1.48    1.49</time>
   <time name="total">    1.77    1.78</time>
   <energy>
    <i name="alphaZ">    113.16553179 </i>
    <i name="ewald">  56608.39324656 </i>
    <i name="hartreedc"> -86526.97556448 </i>
    <i name="XCdc">    916.41781813 </i>
    <i name="pawpsdc">  33289.53546157 </i>
    <i name="pawaedc"> -35337.72462532 </i>
    <i name="eentropy">     -0.00279075 </i>
    <i name="bandstr">  -1553.52028834 </i>
    <i name="atom">  32354.87237921 </i>
    <i name="e_fr_energy">   -135.83883162 </i>
    <i name="e_wo_entrp">   -135.83604087 </i>
    <i name="e_0_energy">   -135.83743624 </i>
   </energy>
  </scstep>
  <scstep>
   <time name="dav">    1.82    1.83</time>
   <time name="total">    2.12    2.14</time>
   <energy>
    <i name="e_fr_energy">   -135.90506019 </i>
    <i name="e_wo_entrp">   -135.90152439 </i>
[...]
       <r>    -0.0613     0.0000   185.0000 </r>
       <r>    -0.0152     0.0000   185.0000 </r>
       <r>     0.0309     0.0000   185.0000 </r>
       <r>     0.0769     0.0000   185.0000 </r>
       <r>     0.1230     0.0000   185.0000 </r>
       <r>     0.1691     0.0000   185.0000 </r>
       <r>     0.2151     0.0000   185.0000 </r>
       <r>     0.2612     0.0000   185.0000 </r>
       <r>     0.3073     0.0000   185.0000 </r>
       <r>     0.3533     0.0000   185.0000 </r>
       <r>     0.3994     0.0000   185.0000 </r>
       <r>     0.4455     0.0000   185.0000 </r>
       <r>     0.4916     0.0000   185.0000 </r>
       <r>     0.5376     0.0000   185.0000 </r>
       <r>     0.5837     0.0000   185.0000 </r>
       <r>     0.6298     0.0000   185.0000 </r>
       <r>     0.6758     0.0000   185.0000 </r>
       <r>     0.7219     0.0083   185.0004 </r>
       <r>     0.7680     9.9110   185.4570 </r>
       <r>     0.8140    11.7693   185.9992 </r>
       <r>     0.8601     0.0177   186.0000 </r>
       <r>     0.9062     0.0062   186.0003 </r>
       <r>     0.9522     9.7745   186.4506 </r>
       <r>     0.9983    31.5130   187.9024 </r>
       <r>     1.0444    12.5491   188.4805 </r>
       <r>     1.0905    27.5849   189.7513 </r>
       <r>     1.1365    26.2817   190.9621 </r>
       <r>     1.1826     4.6704   191.1773 </r>
       <r>     1.2287    17.6440   191.9901 </r>
       <r>     1.2747     0.6534   192.0202 </r>
       <r>     1.3208    19.0972   192.9000 </r>
       <r>     1.3669    20.6516   193.8515 </r>
       <r>     1.4129     7.0529   194.1764 </r>
       <r>     1.4590    37.8760   195.9213 </r>
       <r>     1.5051     7.6551   196.2740 </r>
       <r>     1.5512    36.2477   197.9439 </r>
       <r>     1.5972     1.2179   198.0000 </r>
       <r>     1.6433     0.0000   198.0000 </r>
       <r>     1.6894     0.0000   198.0000 </r>
       <r>     1.7354     0.0000   198.0000 </r>
       <r>     1.7815     0.0000   198.0000 </r>
       <r>     1.8276     0.0000   198.0000 </r>
       <r>     1.8736     0.0000   198.0000 </r>
       <r>     1.9197     0.0000   198.0000 </r>
       <r>     1.9658     0.0000   198.0000 </r>
       <r>     2.0118     0.0000   198.0000 </r>
       <r>     2.0579     0.0000   198.0000 </r>
       <r>     2.1040     0.0000   198.0000 </r>
       <r>     2.1501     0.0000   198.0000 </r>
       <r>     2.1961     0.0000   198.0000 </r>
      </set>
      <set comment="spin 2">
       <r>   -11.6247     0.0000     0.0000 </r>
       <r>   -11.5787     0.0000     0.0000 </r>
       <r>   -11.5326     0.0000     0.0000 </r>
       <r>   -11.4865     0.0000     0.0000 </r>
       <r>   -11.4405     0.0000     0.0000 </r>
       <r>   -11.3944     0.0000     0.0000 </r>
       <r>   -11.3483     0.0000     0.0000 </r>
       <r>   -11.3023     0.0000     0.0000 </r>
       <r>   -11.2562     0.0000     0.0000 </r>
       <r>   -11.2101     0.0000     0.0000 </r>
       <r>   -11.1640     0.0000     0.0000 </r>
       <r>   -11.1180     0.0000     0.0000 </r>
       <r>   -11.0719     0.0000     0.0000 </r>
       <r>   -11.0258     0.4143     0.0191 </r>
       <r>   -10.9798    18.7287     0.8819 </r>
       <r>   -10.9337     2.5632     1.0000 </r>
       <r>   -10.8876     0.0001     1.0000 </r>
       <r>   -10.8416     0.0000     1.0000 </r>
       <r>   -10.7955     0.0000     1.0000 </r>
       <r>   -10.7494     0.0000     1.0000 </r>
       <r>   -10.7034     0.0000     1.0000 </r>
       <r>   -10.6573     0.0000     1.0000 </r>
       <r>   -10.6112     0.0000     1.0000 </r>
       <r>   -10.5651     0.0000     1.0000 </r>
       <r>   -10.5191     0.0000     1.0000 </r>
       <r>   -10.4730     0.0000     1.0000 </r>
       <r>   -10.4269     0.0000     1.0000 </r>
       <r>   -10.3809     0.0000     1.0000 </r>
       <r>   -10.3348     0.0000     1.0000 </r>
       <r>   -10.2887     0.0000     1.0000 </r>
       <r>   -10.2427     0.0000     1.0000 </r>
       <r>   -10.1966     0.0000     1.0000 </r>
       <r>   -10.1505     0.0000     1.0000 </r>
       <r>   -10.1044     0.0000     1.0000 </r>
       <r>   -10.0584     0.0000     1.0000 </r>
       <r>   -10.0123     0.0000     1.0000 </r>
       <r>    -9.9662     0.4863     1.0224 </r>
       <r>    -9.9202    18.9312     1.8946 </r>
       <r>    -9.8741     2.2888     2.0000 </r>
       <r>    -9.8280     0.0001     2.0000 </r>
       <r>    -9.7820     0.0000     2.0000 </r>
       <r>    -9.7359     0.0000     2.0000 </r>
       <r>    -9.6898     0.0000     2.0000 </r>
       <r>    -9.6438     0.0000     2.0000 </r>
       <r>    -9.5977     0.0000     2.0000 </r>
       <r>    -9.5516     0.0000     2.0000 </r>
       <r>    -9.5055     0.0000     2.0000 </r>
       <r>    -9.4595     1.4037     2.0647 </r>
       <r>    -9.4134    19.4159     2.9591 </r>
       <r>    -9.3673     0.8867     3.0000 </r>
       <r>    -9.3213     0.0000     3.0000 </r>
       <r>    -9.2752     0.0000     3.0000 </r>
       <r>    -9.2291     0.2983     3.0137 </r>
       <r>    -9.1831    18.2352     3.8538 </r>
       <r>    -9.1370     3.1726     4.0000 </r>
       <r>    -9.0909     0.0002     4.0000 </r>
       <r>    -9.0448     0.0000     4.0000 </r>
       <r>    -8.9988     0.0000     4.0000 </r>
       <r>    -8.9527     0.0000     4.0000 </r>
       <r>    -8.9066     0.0000     4.0000 </r>
       <r>    -8.8606     0.0000     4.0000 </r>
       <r>    -8.8145     0.0000     4.0000 </r>
       <r>    -8.7684     0.2636     4.0121 </r>
       <r>    -8.7224    18.0256     4.8426 </r>
       <r>    -8.6763     3.4168     5.0000 </r>
       <r>    -8.6302     0.0002     5.0000 </r>
       <r>    -8.5842     0.0000     5.0000 </r>
       <r>    -8.5381     0.0000     5.0000 </r>
       <r>    -8.4920     0.6209     5.0286 </r>
       <r>    -8.4459    19.1846     5.9124 </r>
       <r>    -8.3999     1.9007     6.0000 </r>
       <r>    -8.3538     0.0000     6.0000 </r>
       <r>    -8.3077     0.0000     6.0000 </r>
       <r>    -8.2617     0.0000     6.0000 </r>
       <r>    -8.2156     0.0000     6.0000 </r>
       <r>    -8.1695     0.0000     6.0000 </r>
       <r>    -8.1235     0.0000     6.0000 </r>
       <r>    -8.0774     0.0000     6.0000 </r>
       <r>    -8.0313     0.0000     6.0000 </r>
       <r>    -7.9852     0.0000     6.0000 </r>
       <r>    -7.9392     0.0000     6.0000 </r>
       <r>    -7.8931     0.0000     6.0000 </r>
       <r>    -7.8470     0.0000     6.0000 </r>
       <r>    -7.8010     0.0000     6.0000 </r>
       <r>    -7.7549     0.0000     6.0000 </r>
       <r>    -7.7088     0.0016     6.0001 </r>
       <r>    -7.6628     8.2454     6.3799 </r>
       <r>    -7.6167    34.4541     7.9672 </r>
       <r>    -7.5706     0.7602     8.0022 </r>
       <r>    -7.5246    14.3065     8.6613 </r>
       <r>    -7.4785     7.3485     8.9999 </r>
       <r>    -7.4324     0.0029     9.0000 </r>
       <r>    -7.3863     3.7134     9.1711 </r>
       <r>    -7.3403    21.2803    10.1515 </r>
       <r>    -7.2942    18.1676    10.9884 </r>
       <r>    -7.2481     0.3738    11.0057 </r>
       <r>    -7.2021    16.4973    11.7657 </r>
       <r>    -7.1560     5.0862    12.0000 </r>
       <r>    -7.1099     5.1248    12.2361 </r>
       <r>    -7.0639    20.9112    13.1995 </r>
       <r>    -7.0178    22.8437    14.2519 </r>
       <r>    -6.9717    16.1416    14.9955 </r>
       <r>    -6.9256     1.7459    15.0759 </r>
       <r>    -6.8796    19.3194    15.9660 </r>
       <r>    -6.8335     0.8863    16.0068 </r>
       <r>    -6.7874    19.6047    16.9100 </r>
       <r>    -6.7414    23.4115    17.9885 </r>
       <r>    -6.6953    17.0883    18.7758 </r>
       <r>    -6.6492    16.8680    19.5529 </r>
       <r>    -6.6032    29.7952    20.9255 </r>
       <r>    -6.5571    23.4699    22.0068 </r>
       <r>    -6.5110    18.0215    22.8370 </r>
       <r>    -6.4650     5.3776    23.0848 </r>
       <r>    -6.4189    19.2197    23.9702 </r>
       <r>    -6.3728     0.6464    24.0000 </r>
       <r>    -6.3267     0.0000    24.0000 </r>
       <r>    -6.2807     0.0787    24.0036 </r>
       <r>    -6.2346    15.5007    24.7177 </r>
       <r>    -6.1885    18.8355    25.5855 </r>
       <r>    -6.1425     9.2191    26.0102 </r>
       <r>    -6.0964    17.7668    26.8287 </r>
       <r>    -6.0503    12.4223    27.4010 </r>
       <r>    -6.0043    12.9734    27.9987 </r>
       <r>    -5.9582     0.4655    28.0201 </r>
       <r>    -5.9121    27.8042    29.3011 </r>
       <r>    -5.8660    21.0267    30.2697 </r>
       <r>    -5.8200    21.1240    31.2429 </r>
       <r>    -5.7739    26.6400    32.4702 </r>
       <r>    -5.7278    38.0103    34.2213 </r>
       <r>    -5.6818    17.6453    35.0342 </r>
       <r>    -5.6357    31.8086    36.4996 </r>
       <r>    -5.5896    31.5369    37.9525 </r>
       <r>    -5.5436    27.9203    39.2388 </r>
       <r>    -5.4975    41.2254    41.1381 </r>
       <r>    -5.4514    29.1351    42.4803 </r>
       <r>    -5.4054    40.6551    44.3533 </r>
       <r>    -5.3593    32.1984    45.8366 </r>
       <r>    -5.3132    19.7763    46.7477 </r>
       <r>    -5.2671    38.9000    48.5398 </r>
       <r>    -5.2211    48.9708    50.7959 </r>
       <r>    -5.1750    44.7614    52.8580 </r>
       <r>    -5.1289    28.4279    54.1677 </r>
       <r>    -5.0829    28.4187    55.4769 </r>
       <r>    -5.0368    32.5274    56.9754 </r>
       <r>    -4.9907    19.0149    57.8514 </r>
       <r>    -4.9447    20.7538    58.8076 </r>
       <r>    -4.8986    48.1363    61.0252 </r>
       <r>    -4.8525    47.9847    63.2358 </r>
       <r>    -4.8064    17.4789    64.0411 </r>
       <r>    -4.7604    19.5574    64.9421 </r>
       <r>    -4.7143    13.2963    65.5546 </r>
       <r>    -4.6682    31.4253    67.0024 </r>
       <r>    -4.6222    27.3527    68.2625 </r>
       <r>    -4.5761    32.6975    69.7689 </r>
       <r>    -4.5300    55.7952    72.3393 </r>
       <r>    -4.4840    35.6513    73.9818 </r>
       <r>    -4.4379    24.9567    75.1315 </r>
       <r>    -4.3918    49.9234    77.4314 </r>
       <r>    -4.3458    61.8479    80.2808 </r>
       <r>    -4.2997    18.6369    81.1393 </r>
       <r>    -4.2536    36.0121    82.7984 </r>
       <r>    -4.2075    35.5397    84.4357 </r>
       <r>    -4.1615    43.8485    86.4558 </r>
       <r>    -4.1154    52.2209    88.8616 </r>
       <r>    -4.0693    47.2554    91.0386 </r>
       <r>    -4.0233    35.8496    92.6902 </r>
       <r>    -3.9772    41.8846    94.6198 </r>
       <r>    -3.9311    33.9898    96.1857 </r>
       <r>    -3.8851    60.3972    98.9682 </r>
       <r>    -3.8390    56.0836   101.5519 </r>
       <r>    -3.7929    51.6966   103.9336 </r>
       <r>    -3.7468    45.3616   106.0233 </r>
       <r>    -3.7008    54.4500   108.5318 </r>
       <r>    -3.6547    65.0179   111.5272 </r>
       <r>    -3.6086    54.7420   114.0491 </r>
       <r>    -3.5626    63.4101   116.9704 </r>
       <r>    -3.5165    66.5775   120.0376 </r>
       <r>    -3.4704    60.9360   122.8449 </r>
       <r>    -3.4244    86.8058   126.8440 </r>
       <r>    -3.3783    73.6126   130.2353 </r>
       <r>    -3.3322    91.1634   134.4352 </r>
       <r>    -3.2862    59.6967   137.1854 </r>
       <r>    -3.2401    56.9163   139.8075 </r>
       <r>    -3.1940    26.8717   141.0454 </r>
       <r>    -3.1479    50.0456   143.3510 </r>
       <r>    -3.1019    70.2321   146.5866 </r>
       <r>    -3.0558    70.7197   149.8446 </r>
       <r>    -3.0097    68.8987   153.0187 </r>
       <r>    -2.9637    73.6912   156.4137 </r>
       <r>    -2.9176    45.9189   158.5291 </r>
       <r>    -2.8715    10.9743   159.0347 </r>
       <r>    -2.8255    19.3753   159.9273 </r>
       <r>    -2.7794    14.3798   160.5898 </r>
       <r>    -2.7333     9.4508   161.0252 </r>
       <r>    -2.6872    19.0769   161.9040 </r>
       <r>    -2.6412     2.0827   162.0000 </r>
       <r>    -2.5951     0.3916   162.0180 </r>
       <r>    -2.5490    18.6514   162.8773 </r>
       <r>    -2.5030     5.9942   163.1534 </r>
       <r>    -2.4569    18.1003   163.9873 </r>
       <r>    -2.4108     0.2898   164.0007 </r>
       <r>    -2.3648    11.2759   164.5201 </r>
       <r>    -2.3187    19.2714   165.4080 </r>
       <r>    -2.2726    12.8239   165.9988 </r>
       <r>    -2.2266     0.0458   166.0009 </r>
       <r>    -2.1805    11.9289   166.5504 </r>
       <r>    -2.1344     9.7507   166.9996 </r>
       <r>    -2.0883     0.0077   167.0000 </r>
       <r>    -2.0423     0.0000   167.0000 </r>
       <r>    -1.9962     0.0000   167.0000 </r>
       <r>    -1.9501     0.0154   167.0007 </r>
       <r>    -1.9041    11.4128   167.5265 </r>
       <r>    -1.8580    10.3526   168.0034 </r>
       <r>    -1.8119    15.6400   168.7240 </r>
       <r>    -1.7659     5.9907   168.9999 </r>
       <r>    -1.7198     1.0251   169.0472 </r>
       <r>    -1.6737    19.4556   169.9435 </r>
       <r>    -1.6276     1.2268   170.0000 </r>
       <r>    -1.5816     0.0000   170.0000 </r>
       <r>    -1.5355     0.0000   170.0000 </r>
       <r>    -1.4894     0.0000   170.0000 </r>
       <r>    -1.4434     0.2031   170.0094 </r>
       <r>    -1.3973    17.5447   170.8176 </r>
       <r>    -1.3512     3.9582   171.0000 </r>
       <r>    -1.3052     0.0003   171.0000 </r>
       <r>    -1.2591     0.0000   171.0000 </r>
       <r>    -1.2130     0.0000   171.0000 </r>
       <r>    -1.1670     0.0402   171.0019 </r>
       <r>    -1.1209    13.8265   171.6388 </r>
       <r>    -1.0748     7.8363   171.9998 </r>
       <r>    -1.0287     0.0033   172.0000 </r>
       <r>    -0.9827     0.7484   172.0345 </r>
       <r>    -0.9366    19.4131   172.9288 </r>
       <r>    -0.8905    17.2873   173.7253 </r>
       <r>    -0.8445     5.9626   173.9999 </r>
       <r>    -0.7984     0.0016   174.0000 </r>
       <r>    -0.7523     4.0692   174.1875 </r>
       <r>    -0.7063    17.4457   174.9912 </r>
       <r>    -0.6602     6.7806   175.3036 </r>
       <r>    -0.6141    15.0605   175.9974 </r>
       <r>    -0.5680    10.3404   176.4738 </r>
       <r>    -0.5220    11.4446   177.0010 </r>
       <r>    -0.4759    13.7191   177.6331 </r>
       <r>    -0.4298    21.3700   178.6176 </r>
       <r>    -0.3838     8.6847   179.0177 </r>
       <r>    -0.3377    18.6531   179.8770 </r>
       <r>    -0.2916    13.5150   180.4996 </r>
       <r>    -0.2456    27.8838   181.7842 </r>
       <r>    -0.1995     4.7009   182.0008 </r>
       <r>    -0.1534    11.8368   182.5461 </r>
       <r>    -0.1074     9.8948   183.0020 </r>
       <r>    -0.0613    14.4328   183.6669 </r>
       <r>    -0.0152    15.7569   184.3928 </r>
       <r>     0.0309    13.1493   184.9986 </r>
       <r>     0.0769     0.0307   185.0000 </r>
       <r>     0.1230     0.0000   185.0000 </r>
       <r>     0.1691     0.0000   185.0000 </r>
       <r>     0.2151     0.0000   185.0000 </r>
       <r>     0.2612     0.0000   185.0000 </r>
       <r>     0.3073     0.0000   185.0000 </r>
       <r>     0.3533     0.0000   185.0000 </r>
       <r>     0.3994     0.0000   185.0000 </r>
       <r>     0.4455     0.0000   185.0000 </r>
       <r>     0.4916     0.0000   185.0000 </r>
       <r>     0.5376     0.0000   185.0000 </r>
       <r>     0.5837     0.0000   185.0000 </r>
       <r>     0.6298     0.0000   185.0000 </r>
       <r>     0.6758     0.0000   185.0000 </r>
       <r>     0.7219     0.0000   185.0000 </r>
       <r>     0.7680     0.0000   185.0000 </r>
       <r>     0.8140     0.0000   185.0000 </r>
       <r>     0.8601     1.7280   185.0796 </r>
       <r>     0.9062    19.2801   185.9678 </r>
       <r>     0.9522     0.6981   186.0000 </r>
       <r>     0.9983     0.0001   186.0000 </r>
       <r>     1.0444     2.5789   186.1188 </r>
       <r>     1.0905    38.6095   187.8975 </r>
       <r>     1.1365    20.3824   188.8365 </r>
       <r>     1.1826     5.6362   189.0962 </r>
       <r>     1.2287    37.6620   190.8313 </r>
       <r>     1.2747     6.8029   191.1447 </r>
       <r>     1.3208    18.3531   191.9902 </r>
       <r>     1.3669    16.1100   192.7324 </r>
       <r>     1.4129     6.4473   193.0294 </r>
       <r>     1.4590    19.4856   193.9271 </r>
       <r>     1.5051    31.5561   195.3809 </r>
       <r>     1.5512    27.2848   196.6379 </r>
       <r>     1.5972    29.1422   197.9804 </r>
       <r>     1.6433     0.4245   198.0000 </r>
       <r>     1.6894     0.0000   198.0000 </r>
       <r>     1.7354     0.0000   198.0000 </r>
       <r>     1.7815     0.0000   198.0000 </r>
       <r>     1.8276     0.0000   198.0000 </r>
       <r>     1.8736     0.0000   198.0000 </r>
       <r>     1.9197     0.0000   198.0000 </r>
       <r>     1.9658     0.0000   198.0000 </r>
       <r>     2.0118     0.0000   198.0000 </r>
       <r>     2.0579     0.0000   198.0000 </r>
       <r>     2.1040     0.0000   198.0000 </r>
       <r>     2.1501     0.0000   198.0000 </r>
       <r>     2.1961     0.0000   198.0000 </r>
      </set>
     </set>
    </array>
   </total>
  </dos>
 </calculation>
 <structure name="finalpos" >
  <crystal>
   <varray name="basis" >
    <v>      16.00000000       0.00000000       0.00000000 </v>
    <v>       0.00000000      16.00000000       0.00000000 </v>
    <v>       0.00000000       0.00000000      16.00000000 </v>
   </varray>
   <i name="volume">   4096.00000000 </i>
   <varray name="rec_basis" >
    <v>       0.06250000       0.00000000       0.00000000 </v>
    <v>       0.00000000       0.06250000       0.00000000 </v>
    <v>       0.00000000       0.00000000       0.06250000 </v>
   </varray>
  </crystal>
  <varray name="positions" >
   <v>       0.25219087       0.46702621       0.39490112 </v>
   <v>       0.48202263       0.46345762       0.68041084 </v>
   <v>       0.57374803       0.67163337       0.38975869 </v>
   <v>       0.56765436       0.25971829       0.38487453 </v>
   <v>       0.34258311       0.46235081       0.62866761 </v>
   <v>       0.66727742       0.61289350       0.49375863 </v>
   <v>       0.66242546       0.31937514       0.48503872 </v>
   <v>       0.32618529       0.58553286       0.35921012 </v>
   <v>       0.33757781       0.36134801       0.34700600 </v>
   <v>       0.39777928       0.47654337       0.25956352 </v>
   <v>       0.53800487       0.25738141       0.53218047 </v>
   <v>       0.54152201       0.67388147       0.53721325 </v>
   <v>       0.66359188       0.54447176       0.35934726 </v>
   <v>       0.64602076       0.39323343       0.35273655 </v>
   <v>       0.43134813       0.59406131       0.61012540 </v>
   <v>       0.43245755       0.34096122       0.59550065 </v>
   <v>       0.46354320       0.60543619       0.31636640 </v>
   <v>       0.48011299       0.35411887       0.31155276 </v>
   <v>       0.42824264       0.29351757       0.44323241 </v>
   <v>       0.42757591       0.63407505       0.45810374 </v>
   <v>       0.32158545       0.54265935       0.50518554 </v>
   <v>       0.33088455       0.39196103       0.49604810 </v>
   <v>       0.54082882       0.48531963       0.30478326 </v>
   <v>       0.58005961       0.54091132       0.59461571 </v>
   <v>       0.57830598       0.38909256       0.59013726 </v>
   <v>       0.66194538       0.46556369       0.48939568 </v>
   <v>       0.45577770       0.47172261       0.53915684 </v>
   <v>       0.54356716       0.54289256       0.44278672 </v>
   <v>       0.53453309       0.39032629       0.44438520 </v>
   <v>       0.41313324       0.47627004       0.39932842 </v>
   <v>       0.43650920       0.68580107       0.55696983 </v>
   <v>       0.51292309       0.56385949       0.67701572 </v>
  </varray>
 </structure>
</modeling>
