<?xml version="1.0" encoding="ISO-8859-1"?>
<modeling>
 <generator>
  <i name="program" type="string">vasp </i>
  <i name="version" type="string">6.3.2  </i>
  <i name="subversion" type="string">27Jun22 (build Nov 14 2022 18:12:39) complex                          parallel </i>
  <i name="platform" type="string">Saga </i>
  <i name="date" type="string">2023 01 30 </i>
  <i name="time" type="string">16:46:25 </i>
 </generator>
 <incar>
  <i type="int" name="ISTART">     0</i>
  <i type="string" name="PREC">Accurate</i>
  <i type="int" name="ISPIN">     2</i>
  <i type="int" name="NELM">   120</i>
  <i type="int" name="IBRION">     1</i>
  <i name="EDIFFG">     -0.02000000</i>
  <i type="int" name="NSW">   300</i>
  <i type="int" name="ISYM">    -1</i>
  <i name="ENCUT">    400.00000000</i>
  <i type="int" name="ISMEAR">     0</i>
  <i name="SIGMA">      0.02000000</i>
  <i type="logical" name="LWAVE"> F  </i>
  <i type="logical" name="LCHARG"> F  </i>
  <i type="string" name="GGA">PE</i>
 </incar>
 <primitive_cell>
  <structure name="primitive_cell" >
   <crystal>
    <varray name="basis" >
     <v>      16.00000000       0.00000000       0.00000000 </v>
     <v>       0.00000000      16.00000000       0.00000000 </v>
     <v>       0.00000000       0.00000000      16.00000000 </v>
    </varray>
    <i name="volume">   4096.00000000 </i>
    <varray name="rec_basis" >
     <v>       0.06250000       0.00000000       0.00000000 </v>
     <v>       0.00000000       0.06250000       0.00000000 </v>
     <v>       0.00000000       0.00000000       0.06250000 </v>
    </varray>
   </crystal>
   <varray name="positions" >
    <v>       0.24204812       0.46574375       0.39358062 </v>
    <v>       0.47664750       0.46996062       0.67724500 </v>
    <v>       0.56549250       0.67648500       0.38362437 </v>
    <v>       0.57311312       0.26554500       0.38499375 </v>
    <v>       0.33768562       0.46766813       0.62356500 </v>
    <v>       0.65978875       0.62061375       0.49154062 </v>
    <v>       0.66524938       0.32527375       0.49257937 </v>
    <v>       0.32675000       0.57369062       0.34481625 </v>
    <v>       0.33114375       0.36122812       0.34507188 </v>
    <v>       0.40257313       0.46809063       0.25190625 </v>
    <v>       0.53750625       0.26414000       0.53140812 </v>
    <v>       0.53031438       0.67711438       0.53047625 </v>
    <v>       0.65811125       0.54895063       0.35866813 </v>
    <v>       0.65967312       0.39560375       0.35880750 </v>
    <v>       0.42268937       0.59525687       0.59476000 </v>
    <v>       0.42683313       0.34299625       0.59471812 </v>
    <v>       0.46809750       0.59455000       0.30764875 </v>
    <v>       0.47352250       0.34516125       0.30878812 </v>
    <v>       0.42711875       0.30087688       0.44386313 </v>
    <v>       0.42129875       0.63628937       0.44334312 </v>
    <v>       0.31992125       0.54301125       0.49424562 </v>
    <v>       0.32328812       0.39197125       0.49426000 </v>
    <v>       0.54435625       0.47145750       0.30680125 </v>
    <v>       0.57267187       0.54664000       0.59011250 </v>
    <v>       0.57482875       0.39594625       0.59044750 </v>
    <v>       0.66008312       0.47271500       0.48947438 </v>
    <v>       0.45226000       0.46980438       0.53473625 </v>
    <v>       0.53660750       0.54776313       0.44005500 </v>
    <v>       0.53881625       0.39369375       0.44078812 </v>
    <v>       0.41230875       0.46914563       0.39380312 </v>
    <v>       0.50195125       0.62468188       0.61289375 </v>
    <v>       0.48527562       0.58933437       0.63770000 </v>
   </varray>
  </structure>
  <varray name="primitive_index" >
   <v type="int" >        1 </v>
   <v type="int" >        2 </v>
   <v type="int" >        3 </v>
   <v type="int" >        4 </v>
   <v type="int" >        5 </v>
   <v type="int" >        6 </v>
   <v type="int" >        7 </v>
   <v type="int" >        8 </v>
   <v type="int" >        9 </v>
   <v type="int" >       10 </v>
   <v type="int" >       11 </v>
   <v type="int" >       12 </v>
   <v type="int" >       13 </v>
   <v type="int" >       14 </v>
   <v type="int" >       15 </v>
   <v type="int" >       16 </v>
   <v type="int" >       17 </v>
   <v type="int" >       18 </v>
   <v type="int" >       19 </v>
   <v type="int" >       20 </v>
   <v type="int" >       21 </v>
   <v type="int" >       22 </v>
   <v type="int" >       23 </v>
   <v type="int" >       24 </v>
   <v type="int" >       25 </v>
   <v type="int" >       26 </v>
   <v type="int" >       27 </v>
   <v type="int" >       28 </v>
   <v type="int" >       29 </v>
   <v type="int" >       30 </v>
   <v type="int" >       31 </v>
   <v type="int" >       32 </v>
  </varray>
 </primitive_cell>
 <kpoints>
  <generation param="Monkhorst-Pack">
   <v type="int" name="divisions">       1        1        1 </v>
   <v name="usershift">      0.00000000       0.00000000       0.00000000 </v>
   <v name="genvec1">      1.00000000       0.00000000       0.00000000 </v>
   <v name="genvec2">      0.00000000       1.00000000       0.00000000 </v>
   <v name="genvec3">      0.00000000       0.00000000       1.00000000 </v>
   <v name="shift">      0.00000000       0.00000000       0.00000000 </v>
  </generation>
  <varray name="kpointlist" >
   <v>       0.00000000       0.00000000       0.00000000 </v>
  </varray>
  <varray name="weights" >
   <v>       1.00000000 </v>
  </varray>
 </kpoints>
 <parameters>
  <separator name="general" >
   <i type="string" name="SYSTEM">unknown system</i>
   <i type="logical" name="LCOMPAT"> F  </i>
  </separator>
  <separator name="electronic" >
   <i type="string" name="PREC">accura</i>
   <i name="ENMAX">    400.00000000</i>
   <i name="ENAUG">    544.56500000</i>
   <i name="EDIFF">      0.00010000</i>
   <i type="int" name="IALGO">    38</i>
   <i type="int" name="IWAVPR">    11</i>
   <i type="int" name="NBANDS">   198</i>
   <i type="int" name="NBANDSLOW">    -1</i>
   <i type="int" name="NBANDSHIGH">    -1</i>
   <i name="NELECT">    302.00000000</i>
   <i type="int" name="TURBO">     0</i>
   <i type="int" name="IRESTART">     0</i>
   <i type="int" name="NREBOOT">     0</i>
   <i type="int" name="NMIN">     0</i>
   <i name="EREF">      0.00000000</i>
   <separator name="electronic smearing" >
    <i type="int" name="ISMEAR">     0</i>
    <i name="SIGMA">      0.02000000</i>
    <i name="KSPACING">      0.50000000</i>
    <i type="logical" name="KGAMMA"> T  </i>
    <i type="logical" name="KBLOWUP"> F  </i>
   </separator>
   <separator name="electronic projectors" >
    <i type="logical" name="LREAL"> F  </i>
    <v name="ROPT">      0.00000000      0.00000000</v>
    <i type="int" name="LMAXPAW">  -100</i>
    <i type="int" name="LMAXMIX">     2</i>
    <i type="logical" name="NLSPLINE"> F  </i>
   </separator>
   <separator name="electronic startup" >
    <i type="int" name="ISTART">     0</i>
    <i type="int" name="ICHARG">     2</i>
    <i type="int" name="INIWAV">     1</i>
   </separator>
   <separator name="electronic spin" >
    <i type="int" name="ISPIN">     2</i>
    <i type="logical" name="LNONCOLLINEAR"> F  </i>
    <v name="MAGMOM">      1.00000000      1.00000000      1.00000000      1.00000000      1.00000000      1.00000000      1.00000000      1.00000000      1.00000000      1.00000000      1.00000000      1.00000000      1.00000000      1.00000000      1.00000000      1.00000000      1.00000000      1.00000000      1.00000000      1.00000000
      1.00000000      1.00000000      1.00000000      1.00000000      1.00000000      1.00000000      1.00000000      1.00000000      1.00000000      1.00000000      1.00000000      1.00000000</v>
    <i name="NUPDOWN">     -1.00000000</i>
    <i type="logical" name="LSORBIT"> F  </i>
    <v name="SAXIS">      0.00000000      0.00000000      1.00000000</v>
    <i type="logical" name="LSPIRAL"> F  </i>
    <v name="QSPIRAL">      0.00000000      0.00000000      0.00000000</v>
    <i type="logical" name="LZEROZ"> F  </i>
   </separator>
   <separator name="electronic exchange-correlation" >
    <i type="logical" name="LASPH"> F  </i>
    <i type="logical" name="LMETAGGA"> F  </i>
   </separator>
   <separator name="electronic convergence" >
    <i type="int" name="NELM">   120</i>
    <i type="int" name="NELMDL">    -5</i>
    <i type="int" name="NELMIN">     2</i>
    <i name="ENINI">    400.00000000</i>
    <separator name="electronic convergence detail" >
     <i type="logical" name="LDIAG"> T  </i>
     <i type="logical" name="LSUBROT"> F  </i>
     <i name="WEIMIN">      0.00100000</i>
     <i name="EBREAK">      0.00000013</i>
     <i name="DEPER">      0.30000000</i>
     <i type="int" name="NRMM">     4</i>
     <i name="TIME">      0.40000000</i>
    </separator>
   </separator>
   <separator name="electronic mixer" >
    <i name="AMIX">      0.40000000</i>
    <i name="BMIX">      1.00000000</i>
    <i name="AMIN">      0.10000000</i>
    <i name="AMIX_MAG">      1.60000000</i>
    <i name="BMIX_MAG">      1.00000000</i>
    <separator name="electronic mixer details" >
     <i type="int" name="IMIX">     4</i>
     <i type="logical" name="MIXFIRST"> F  </i>
     <i type="int" name="MAXMIX">   -45</i>
     <i name="WC">    100.00000000</i>
     <i type="int" name="INIMIX">     1</i>
     <i type="int" name="MIXPRE">     1</i>
     <i type="int" name="MREMOVE">     5</i>
    </separator>
   </separator>
   <separator name="electronic dipolcorrection" >
    <i type="logical" name="LDIPOL"> F  </i>
    <i type="logical" name="LMONO"> F  </i>
    <i type="int" name="IDIPOL">     0</i>
    <i name="EPSILON">      1.00000000</i>
    <v name="DIPOL">   -100.00000000   -100.00000000   -100.00000000</v>
    <i name="EFIELD">      0.00000000</i>
   </separator>
  </separator>
  <separator name="grids" >
   <i type="int" name="NGX">   108</i>
   <i type="int" name="NGY">   108</i>
   <i type="int" name="NGZ">   108</i>
   <i type="int" name="NGXF">   216</i>
   <i type="int" name="NGYF">   216</i>
   <i type="int" name="NGZF">   216</i>
   <i type="logical" name="ADDGRID"> F  </i>
  </separator>
  <separator name="ionic" >
   <i type="int" name="NSW">   300</i>
   <i type="int" name="IBRION">     1</i>
   <i type="int" name="MDALGO">     0</i>
   <i type="int" name="ISIF">     2</i>
   <i name="PSTRESS">      0.00000000</i>
   <i name="EDIFFG">     -0.02000000</i>
   <i type="int" name="NFREE">     0</i>
   <i name="POTIM">      0.50000000</i>
   <i name="SMASS">     -3.00000000</i>
   <i name="SCALEE">      1.00000000</i>
  </separator>
  <separator name="ionic md" >
   <i name="TEBEG">      0.00010000</i>
   <i name="TEEND">      0.00010000</i>
   <i type="int" name="NBLOCK">     1</i>
   <i type="int" name="KBLOCK">   300</i>
   <i type="int" name="NPACO">   256</i>
   <i name="APACO">     10.00000000</i>
  </separator>
  <separator name="symmetry" >
   <i type="int" name="ISYM">    -1</i>
   <i name="SYMPREC">      0.00001000</i>
  </separator>
  <separator name="dos" >
   <i type="int" name="LORBIT">     0</i>
   <v name="RWIGS">     -1.00000000     -1.00000000</v>
   <i type="int" name="NEDOS">   301</i>
   <i name="EMIN">     10.00000000</i>
   <i name="EMAX">    -10.00000000</i>
   <i name="EFERMI">      0.00000000</i>
  </separator>
  <separator name="writing" >
   <i type="int" name="NWRITE">     2</i>
   <i type="logical" name="LWAVE"> F  </i>
   <i type="logical" name="LDOWNSAMPLE"> F  </i>
   <i type="logical" name="LCHARG"> F  </i>
   <i type="logical" name="LPARD"> F  </i>
   <i type="logical" name="LVTOT"> F  </i>
   <i type="logical" name="LVHAR"> F  </i>
   <i type="logical" name="LELF"> F  </i>
   <i type="logical" name="LOPTICS"> F  </i>
   <v name="STM">      0.00000000      0.00000000      0.00000000      0.00000000      0.00000000      0.00000000      0.00000000</v>
  </separator>
  <separator name="performance" >
   <i type="int" name="NPAR">     2</i>
   <i type="int" name="NSIM">     4</i>
   <i type="int" name="NBLK">    -1</i>
   <i type="logical" name="LPLANE"> T  </i>
   <i type="logical" name="LSCALAPACK"> T  </i>
   <i type="logical" name="LSCAAWARE"> F  </i>
   <i type="logical" name="LSCALU"> F  </i>
   <i type="logical" name="LASYNC"> F  </i>
   <i type="logical" name="LORBITALREAL"> F  </i>
  </separator>
  <separator name="miscellaneous" >
   <i type="int" name="IDIOT">     3</i>
   <i type="int" name="PHON_NSTRUCT">    -1</i>
   <i type="logical" name="LMUSIC"> F  </i>
   <v name="POMASS">     58.69000000      1.00000000</v>
   <v name="DARWINR">      0.00000000      0.00000000</v>
   <v name="DARWINV">      1.00000000      1.00000000</v>
   <i type="logical" name="LCORR"> T  </i>
  </separator>
  <i type="logical" name="GGA_COMPAT"> T  </i>
  <i type="logical" name="LBERRY"> F  </i>
  <i type="int" name="ICORELEVEL">     0</i>
  <i type="logical" name="LDAU"> F  </i>
  <i type="int" name="I_CONSTRAINED_M">     0</i>
  <separator name="electronic exchange-correlation" >
   <i type="string" name="GGA">PE</i>
   <i type="int" name="VOSKOWN">     0</i>
   <i type="logical" name="LHFCALC"> F  </i>
   <i type="string" name="PRECFOCK"></i>
   <i type="logical" name="LSYMGRAD"> F  </i>
   <i type="logical" name="LHFONE"> F  </i>
   <i type="logical" name="LRHFCALC"> F  </i>
   <i type="logical" name="LTHOMAS"> F  </i>
   <i type="logical" name="LMODELHF"> F  </i>
   <i type="logical" name="LFOCKACE"> F  </i>
   <i name="ENCUT4O">     -1.00000000</i>
   <i type="int" name="EXXOEP">     0</i>
   <i type="int" name="FOURORBIT">     0</i>
   <i name="AEXX">      0.00000000</i>
   <i name="HFALPHA">      0.00000000</i>
   <i name="MCALPHA">      0.00000000</i>
   <i name="ALDAX">      1.00000000</i>
   <i name="AGGAX">      1.00000000</i>
   <i name="ALDAC">      1.00000000</i>
   <i name="AGGAC">      1.00000000</i>
   <i type="int" name="NKREDX">     1</i>
   <i type="int" name="NKREDY">     1</i>
   <i type="int" name="NKREDZ">     1</i>
   <i type="logical" name="SHIFTRED"> F  </i>
   <i type="logical" name="ODDONLY"> F  </i>
   <i type="logical" name="EVENONLY"> F  </i>
   <i type="int" name="LMAXFOCK">     0</i>
   <i type="int" name="NMAXFOCKAE">     0</i>
   <i type="logical" name="LFOCKAEDFT"> F  </i>
   <i name="HFSCREEN">      0.00000000</i>
   <i name="HFSCREENC">      0.00000000</i>
   <i type="int" name="NBANDSGWLOW">     0</i>
  </separator>
  <separator name="vdW DFT" >
   <i type="logical" name="LUSE_VDW"> F  </i>
   <i name="Zab_VDW">     -0.84910000</i>
   <i name="PARAM1">      0.12340000</i>
   <i name="PARAM2">      1.00000000</i>
   <i name="PARAM3">      0.00000000</i>
  </separator>
  <separator name="model GW" >
   <i type="int" name="MODEL_GW">     0</i>
   <i name="MODEL_EPS0">     76.80000000</i>
   <i name="MODEL_ALPHA">      1.00000000</i>
  </separator>
  <separator name="linear response parameters" >
   <i type="logical" name="LEPSILON"> F  </i>
   <i type="logical" name="LRPA"> F  </i>
   <i type="logical" name="LNABLA"> F  </i>
   <i type="logical" name="LVEL"> F  </i>
   <i name="CSHIFT">      0.10000000</i>
   <i name="OMEGAMAX">     -1.00000000</i>
   <i name="DEG_THRESHOLD">      0.00200000</i>
   <i name="RTIME">     -0.10000000</i>
   <i name="WPLASMAI">      0.00000000</i>
   <v name="DFIELD">      0.00000000      0.00000000      0.00000000</v>
   <v name="WPLASMA">      0.00000000      0.00000000      0.00000000      0.00000000      0.00000000      0.00000000      0.00000000      0.00000000      0.00000000</v>
  </separator>
  <separator name="orbital magnetization" >
   <i type="logical" name="NUCIND"> F  </i>
   <v name="MAGPOS">      0.00000000      0.00000000      0.00000000</v>
   <i type="logical" name="LNICSALL"> T  </i>
   <i type="logical" name="ORBITALMAG"> F  </i>
   <i type="logical" name="LMAGBLOCH"> F  </i>
   <i type="logical" name="LCHIMAG"> F  </i>
   <i type="logical" name="LGAUGE"> T  </i>
   <i type="int" name="MAGATOM">     0</i>
   <v name="MAGDIPOL">      0.00000000      0.00000000      0.00000000</v>
   <v name="AVECCONST">      0.00000000      0.00000000      0.00000000</v>
  </separator>
  <separator name="response functions" >
   <i type="logical" name="LFINITE_TEMPERATURE"> F  </i>
   <i type="logical" name="LADDER"> F  </i>
   <i type="logical" name="LRPAFORCE"> F  </i>
   <i type="logical" name="LFXC"> F  </i>
   <i type="logical" name="LHARTREE"> T  </i>
   <i type="int" name="IBSE">     0</i>
   <v type="int" name="KPOINT">    -1     0     0     0</v>
   <i type="logical" name="LTCTC"> F  </i>
   <i type="logical" name="LTCTE"> F  </i>
   <i type="logical" name="LTETE"> F  </i>
   <i type="logical" name="LTRIPLET"> F  </i>
   <i type="logical" name="LFXCEPS"> F  </i>
   <i type="logical" name="LFXHEG"> F  </i>
   <i type="int" name="NATURALO">     2</i>
   <i type="logical" name="LHOLEGF"> F  </i>
   <i type="logical" name="L2ORDER"> F  </i>
   <i type="logical" name="LDMP1"> F  </i>
   <i type="logical" name="LMP2LT"> F  </i>
   <i type="logical" name="LSMP2LT"> F  </i>
   <i type="logical" name="LGWLF"> F  </i>
   <i name="ENCUTGW">     -2.00000000</i>
   <i name="ENCUTGWSOFT">     -2.00000000</i>
   <i name="ENCUTLF">     -1.00000000</i>
   <i type="logical" name="LESF_SPLINES"> F  </i>
   <i type="int" name="LMAXMP2">    -1</i>
   <i name="SCISSOR">      0.00000000</i>
   <i type="int" name="NOMEGA">     0</i>
   <i type="int" name="NOMEGAR">     0</i>
   <i type="int" name="NBANDSGW">    -1</i>
   <i type="int" name="NBANDSO">    -1</i>
   <i type="int" name="NBANDSV">    -1</i>
   <i type="int" name="NELMGW">     1</i>
   <i type="int" name="NELMHF">     1</i>
   <i type="int" name="DIM">     3</i>
   <i type="int" name="IESPILON">     4</i>
   <i type="int" name="ANTIRES">     0</i>
   <i name="OMEGAMAX">    -30.00000000</i>
   <i name="OMEGAMIN">    -30.00000000</i>
   <i name="OMEGATL">   -200.00000000</i>
   <i type="int" name="OMEGAGRID">     0</i>
   <i name="CSHIFT">     -0.10000000</i>
   <i type="logical" name="LSELFENERGY"> F  </i>
   <i type="logical" name="LSPECTRAL"> F  </i>
   <i type="logical" name="LSPECTRALGW"> F  </i>
   <i type="logical" name="LSINGLES"> F  </i>
   <i type="logical" name="LFERMIGW"> F  </i>
   <i type="logical" name="ODDONLYGW"> F  </i>
   <i type="logical" name="EVENONLYGW"> F  </i>
   <i type="int" name="NKREDLFX">     1</i>
   <i type="int" name="NKREDLFY">     1</i>
   <i type="int" name="NKREDLFZ">     1</i>
   <i type="int" name="MAXMEM">  2800</i>
   <i type="int" name="TELESCOPE">     0</i>
   <i type="int" name="NTAUPAR">    -1</i>
   <i type="int" name="NOMEGAPAR">    -1</i>
   <i name="DAMP_NEWTON">      0.80000001</i>
   <i name="LAMBDA">      1.00000000</i>
  </separator>
  <separator name="External order field" >
   <i name="OFIELD_KAPPA">      0.00000000</i>
   <v name="OFIELD_K">      0.00000000      0.00000000      0.00000000</v>
   <i name="OFIELD_Q6_NEAR">      0.00000000</i>
   <i name="OFIELD_Q6_FAR">      0.00000000</i>
   <i name="OFIELD_A">      0.00000000</i>
  </separator>
  <separator name="optional k-points parameters" >
   <i type="int" name="KPOINTS_OPT_MODE">     1</i>
   <i type="logical" name="LKPOINTS_OPT"> F  </i>
  </separator>
 </parameters>
 <atominfo>
  <atoms>      32 </atoms>
  <types>       2 </types>
  <array name="atoms" >
   <dimension dim="1">ion</dimension>
   <field type="string">element</field>
   <field type="int">atomtype</field>
   <set>
    <rc><c>Ni</c><c>   1</c></rc>
    <rc><c>Ni</c><c>   1</c></rc>
    <rc><c>Ni</c><c>   1</c></rc>
    <rc><c>Ni</c><c>   1</c></rc>
    <rc><c>Ni</c><c>   1</c></rc>
    <rc><c>Ni</c><c>   1</c></rc>
    <rc><c>Ni</c><c>   1</c></rc>
    <rc><c>Ni</c><c>   1</c></rc>
    <rc><c>Ni</c><c>   1</c></rc>
    <rc><c>Ni</c><c>   1</c></rc>
    <rc><c>Ni</c><c>   1</c></rc>
    <rc><c>Ni</c><c>   1</c></rc>
    <rc><c>Ni</c><c>   1</c></rc>
    <rc><c>Ni</c><c>   1</c></rc>
    <rc><c>Ni</c><c>   1</c></rc>
    <rc><c>Ni</c><c>   1</c></rc>
    <rc><c>Ni</c><c>   1</c></rc>
    <rc><c>Ni</c><c>   1</c></rc>
    <rc><c>Ni</c><c>   1</c></rc>
    <rc><c>Ni</c><c>   1</c></rc>
    <rc><c>Ni</c><c>   1</c></rc>
    <rc><c>Ni</c><c>   1</c></rc>
    <rc><c>Ni</c><c>   1</c></rc>
    <rc><c>Ni</c><c>   1</c></rc>
    <rc><c>Ni</c><c>   1</c></rc>
    <rc><c>Ni</c><c>   1</c></rc>
    <rc><c>Ni</c><c>   1</c></rc>
    <rc><c>Ni</c><c>   1</c></rc>
    <rc><c>Ni</c><c>   1</c></rc>
    <rc><c>Ni</c><c>   1</c></rc>
    <rc><c>H </c><c>   2</c></rc>
    <rc><c>H </c><c>   2</c></rc>
   </set>
  </array>
  <array name="atomtypes" >
   <dimension dim="1">type</dimension>
   <field type="int">atomspertype</field>
   <field type="string">element</field>
   <field>mass</field>
   <field>valence</field>
   <field type="string">pseudopotential</field>
   <set>
    <rc><c>  30</c><c>Ni</c><c>     58.69000000</c><c>     10.00000000</c><c>  PAW_PBE Ni 02Aug2007                  </c></rc>
    <rc><c>   2</c><c>H </c><c>      1.00000000</c><c>      1.00000000</c><c>  PAW_PBE H 15Jun2001                   </c></rc>
   </set>
  </array>
 </atominfo>
 <structure name="initialpos" >
  <crystal>
   <varray name="basis" >
    <v>      16.00000000       0.00000000       0.00000000 </v>
    <v>       0.00000000      16.00000000       0.00000000 </v>
    <v>       0.00000000       0.00000000      16.00000000 </v>
   </varray>
   <i name="volume">   4096.00000000 </i>
   <varray name="rec_basis" >
    <v>       0.06250000       0.00000000       0.00000000 </v>
    <v>       0.00000000       0.06250000       0.00000000 </v>
    <v>       0.00000000       0.00000000       0.06250000 </v>
   </varray>
  </crystal>
  <varray name="positions" >
   <v>       0.24204812       0.46574375       0.39358062 </v>
   <v>       0.47664750       0.46996062       0.67724500 </v>
   <v>       0.56549250       0.67648500       0.38362437 </v>
   <v>       0.57311312       0.26554500       0.38499375 </v>
   <v>       0.33768562       0.46766813       0.62356500 </v>
   <v>       0.65978875       0.62061375       0.49154062 </v>
   <v>       0.66524938       0.32527375       0.49257937 </v>
   <v>       0.32675000       0.57369062       0.34481625 </v>
   <v>       0.33114375       0.36122812       0.34507188 </v>
   <v>       0.40257313       0.46809063       0.25190625 </v>
   <v>       0.53750625       0.26414000       0.53140812 </v>
   <v>       0.53031438       0.67711438       0.53047625 </v>
   <v>       0.65811125       0.54895063       0.35866813 </v>
   <v>       0.65967312       0.39560375       0.35880750 </v>
   <v>       0.42268937       0.59525687       0.59476000 </v>
   <v>       0.42683313       0.34299625       0.59471812 </v>
   <v>       0.46809750       0.59455000       0.30764875 </v>
   <v>       0.47352250       0.34516125       0.30878812 </v>
   <v>       0.42711875       0.30087688       0.44386313 </v>
   <v>       0.42129875       0.63628937       0.44334312 </v>
   <v>       0.31992125       0.54301125       0.49424562 </v>
   <v>       0.32328812       0.39197125       0.49426000 </v>
   <v>       0.54435625       0.47145750       0.30680125 </v>
   <v>       0.57267187       0.54664000       0.59011250 </v>
   <v>       0.57482875       0.39594625       0.59044750 </v>
   <v>       0.66008312       0.47271500       0.48947438 </v>
   <v>       0.45226000       0.46980438       0.53473625 </v>
   <v>       0.53660750       0.54776313       0.44005500 </v>
   <v>       0.53881625       0.39369375       0.44078812 </v>
   <v>       0.41230875       0.46914563       0.39380312 </v>
   <v>       0.50195125       0.62468188       0.61289375 </v>
   <v>       0.48527562       0.58933437       0.63770000 </v>
  </varray>
 </structure>
 <calculation>
  <scstep>
   <time name="dav">    3.81    3.84</time>
   <time name="total">    4.27    4.30</time>
   <energy>
    <i name="alphaZ">    113.16553179 </i>
    <i name="ewald">  56865.31534056 </i>
    <i name="hartreedc"> -86668.68492803 </i>
    <i name="XCdc">    938.84457320 </i>
    <i name="pawpsdc">  28888.58386782 </i>
    <i name="pawaedc"> -30893.72677109 </i>
    <i name="eentropy">     -0.00574154 </i>
    <i name="bandstr">    -86.53278703 </i>
    <i name="atom">  32354.87237921 </i>
    <i name="e_fr_energy">   1511.83146491 </i>
    <i name="e_wo_entrp">   1511.83720644 </i>
    <i name="e_0_energy">   1511.83433567 </i>
   </energy>
  </scstep>
  <scstep>
   <time name="dav">    3.87    3.88</time>
   <time name="total">    3.87    3.89</time>
   <energy>
    <i name="e_fr_energy">    -64.33625190 </i>
    <i name="e_wo_entrp">    -64.32155871 </i>
    <i name="e_0_energy">    -64.32890531 </i>
   </energy>
  </scstep>
  <scstep>
   <time name="dav">    3.94    3.97</time>
   <time name="total">    3.95    3.97</time>
   <energy>
    <i name="e_fr_energy">   -149.08093510 </i>
    <i name="e_wo_entrp">   -149.06499000 </i>
    <i name="e_0_energy">   -149.07296255 </i>
   </energy>
  </scstep>
  <scstep>
   <time name="dav">    3.97    3.99</time>
   <time name="total">    3.97    3.99</time>
   <energy>
    <i name="e_fr_energy">   -151.13256275 </i>
    <i name="e_wo_entrp">   -151.11611981 </i>
    <i name="e_0_energy">   -151.12434128 </i>
   </energy>
  </scstep>
  <scstep>
   <time name="dav">    4.11    4.13</time>
   <time name="total">    4.31    4.33</time>
   <energy>
    <i name="e_fr_energy">   -151.20277456 </i>
    <i name="e_wo_entrp">   -151.18630820 </i>
    <i name="e_0_energy">   -151.19454138 </i>
   </energy>
  </scstep>
  <scstep>
   <time name="dav">    3.98    3.99</time>
   <time name="total">    4.63    4.64</time>
   <energy>
    <i name="e_fr_energy">   -180.20816087 </i>
    <i name="e_wo_entrp">   -180.19326822 </i>
    <i name="e_0_energy">   -180.20071455 </i>
   </energy>
  </scstep>
  <scstep>
   <time name="dav">    3.86    3.86</time>
   <time name="total">    4.49    4.51</time>
   <energy>
    <i name="e_fr_energy">   -152.72898240 </i>
    <i name="e_wo_entrp">   -152.72555749 </i>
    <i name="e_0_energy">   -152.72726995 </i>
   </energy>
  </scstep>
  <scstep>
   <time name="dav">    3.89    3.90</time>
   <time name="total">    4.51    4.54</time>
   <energy>
    <i name="e_fr_energy">   -148.33742387 </i>
    <i name="e_wo_entrp">   -148.32676139 </i>
    <i name="e_0_energy">   -148.33209263 </i>
   </energy>
  </scstep>
  <scstep>
   <time name="dav">    4.01    4.02</time>
   <time name="total">    4.64    4.67</time>
   <energy>
    <i name="e_fr_energy">   -146.60332110 </i>
    <i name="e_wo_entrp">   -146.59197935 </i>
    <i name="e_0_energy">   -146.59765023 </i>
   </energy>
  </scstep>
  <scstep>
   <time name="dav">    4.24    4.25</time>
   <time name="total">    4.87    4.90</time>
   <energy>
    <i name="e_fr_energy">   -137.44971813 </i>
    <i name="e_wo_entrp">   -137.43541347 </i>
    <i name="e_0_energy">   -137.44256580 </i>
   </energy>
  </scstep>
  <scstep>
   <time name="dav">    4.04    4.05</time>
   <time name="total">    4.66    4.70</time>
   <energy>
    <i name="e_fr_energy">   -135.75958126 </i>
    <i name="e_wo_entrp">   -135.74378136 </i>
    <i name="e_0_energy">   -135.75168131 </i>
   </energy>
  </scstep>
  <scstep>
   <time name="dav">    4.07    4.08</time>
   <time name="total">    4.70    4.72</time>
   <energy>
    <i name="e_fr_energy">   -135.13878233 </i>
    <i name="e_wo_entrp">   -135.13393095 </i>
    <i name="e_0_energy">   -135.13635664 </i>
   </energy>
  </scstep>
  <scstep>
   <time name="dav">    3.95    3.96</time>
   <time name="total">    4.58    4.60</time>
   <energy>
    <i name="e_fr_energy">   -129.32196257 </i>
    <i name="e_wo_entrp">   -129.31207016 </i>
    <i name="e_0_energy">   -129.31701636 </i>
   </energy>
  </scstep>
  <scstep>
   <time name="dav">    4.06    4.07</time>
   <time name="total">    4.69    4.72</time>
   <energy>
    <i name="e_fr_energy">   -127.03982385 </i>
    <i name="e_wo_entrp">   -127.02807474 </i>
    <i name="e_0_energy">   -127.03394930 </i>
   </energy>
  </scstep>
  <scstep>
   <time name="dav">    3.99    4.00</time>
   <time name="total">    4.62    4.64</time>
   <energy>
    <i name="e_fr_energy">   -126.32246375 </i>
    <i name="e_wo_entrp">   -126.31698270 </i>
    <i name="e_0_energy">   -126.31972323 </i>
   </energy>
  </scstep>
  <scstep>
   <time name="dav">    4.15    4.16</time>
   <time name="total">    4.79    4.81</time>
   <energy>
    <i name="e_fr_energy">   -125.94234707 </i>
    <i name="e_wo_entrp">   -125.93282886 </i>
    <i name="e_0_energy">   -125.93758796 </i>
   </energy>
  </scstep>
  <scstep>
   <time name="dav">    3.90    3.91</time>
   <time name="total">    4.53    4.55</time>
   <energy>
    <i name="e_fr_energy">   -126.36228153 </i>
    <i name="e_wo_entrp">   -126.34684679 </i>
    <i name="e_0_energy">   -126.35456416 </i>
   </energy>
  </scstep>
  <scstep>
   <time name="dav">    3.97    3.98</time>
   <time name="total">    4.60    4.62</time>
   <energy>
    <i name="e_fr_energy">   -125.99572704 </i>
    <i name="e_wo_entrp">   -125.98070953 </i>
    <i name="e_0_energy">   -125.98821828 </i>
   </energy>
  </scstep>
  <scstep>
   <time name="dav">    4.05    4.06</time>
   <time name="total">    4.68    4.70</time>
   <energy>
    <i name="e_fr_energy">   -125.72936034 </i>
    <i name="e_wo_entrp">   -125.71704779 </i>
    <i name="e_0_energy">   -125.72320407 </i>
   </energy>
  </scstep>
  <scstep>
   <time name="dav">    4.18    4.19</time>
   <time name="total">    4.82    4.84</time>
   <energy>
    <i name="e_fr_energy">   -125.89043016 </i>
    <i name="e_wo_entrp">   -125.88125610 </i>
    <i name="e_0_energy">   -125.88584313 </i>
   </energy>
  </scstep>
  <scstep>
   <time name="dav">    4.01    4.02</time>
   <time name="total">    4.64    4.66</time>
   <energy>
    <i name="e_fr_energy">   -126.54461719 </i>
    <i name="e_wo_entrp">   -126.53586238 </i>
    <i name="e_0_energy">   -126.54023978 </i>
   </energy>
  </scstep>
  <scstep>
   <time name="dav">    3.96    3.97</time>
   <time name="total">    4.60    4.61</time>
   <energy>
    <i name="e_fr_energy">   -127.00468594 </i>
    <i name="e_wo_entrp">   -126.99801979 </i>
    <i name="e_0_energy">   -127.00135287 </i>
   </energy>
  </scstep>
  <scstep>
   <time name="dav">    4.04    4.05</time>
   <time name="total">    4.67    4.70</time>
   <energy>
    <i name="e_fr_energy">   -127.94384564 </i>
    <i name="e_wo_entrp">   -127.93098549 </i>
    <i name="e_0_energy">   -127.93741557 </i>
   </energy>
  </scstep>
  <scstep>
   <time name="dav">    3.90    3.91</time>
   <time name="total">    4.53    4.56</time>
   <energy>
    <i name="e_fr_energy">   -128.63437236 </i>
    <i name="e_wo_entrp">   -128.62149688 </i>
    <i name="e_0_energy">   -128.62793462 </i>
   </energy>
  </scstep>
  <scstep>
   <time name="dav">    3.95    3.96</time>
   <time name="total">    4.59    4.62</time>
   <energy>
    <i name="e_fr_energy">   -128.98013605 </i>
    <i name="e_wo_entrp">   -128.96711707 </i>
    <i name="e_0_energy">   -128.97362656 </i>
   </energy>
  </scstep>
  <scstep>
   <time name="dav">    4.21    4.22</time>
   <time name="total">    4.85    4.89</time>
   <energy>
    <i name="e_fr_energy">   -129.43976437 </i>
    <i name="e_wo_entrp">   -129.42980605 </i>
    <i name="e_0_energy">   -129.43478521 </i>
   </energy>
  </scstep>
  <scstep>
   <time name="dav">    3.82    3.82</time>
   <time name="total">    4.45    4.48</time>
   <energy>
    <i name="e_fr_energy">   -130.07269753 </i>
    <i name="e_wo_entrp">   -130.06341668 </i>
    <i name="e_0_energy">   -130.06805711 </i>
   </energy>
  </scstep>
  <scstep>
   <time name="dav">    3.97    3.98</time>
   <time name="total">    4.61    4.63</time>
   <energy>
    <i name="e_fr_energy">   -130.37123308 </i>
    <i name="e_wo_entrp">   -130.36012265 </i>
    <i name="e_0_energy">   -130.36567786 </i>
   </energy>
  </scstep>
  <scstep>
   <time name="dav">    3.80    3.81</time>
   <time name="total">    4.44    4.46</time>
   <energy>
    <i name="e_fr_energy">   -130.80348194 </i>
    <i name="e_wo_entrp">   -130.79502266 </i>
    <i name="e_0_energy">   -130.79925230 </i>
   </energy>
  </scstep>
  <scstep>
   <time name="dav">    3.94    3.95</time>
   <time name="total">    4.58    4.60</time>
   <energy>
    <i name="e_fr_energy">   -130.91819180 </i>
    <i name="e_wo_entrp">   -130.90837989 </i>
    <i name="e_0_energy">   -130.91328584 </i>
   </energy>
  </scstep>
  <scstep>
   <time name="dav">    3.82    3.83</time>
   <time name="total">    4.46    4.49</time>
   <energy>
    <i name="e_fr_energy">   -131.18961168 </i>
    <i name="e_wo_entrp">   -131.18082047 </i>
    <i name="e_0_energy">   -131.18521608 </i>
   </energy>
  </scstep>
  <scstep>
   <time name="dav">    3.89    3.90</time>
   <time name="total">    4.53    4.56</time>
   <energy>
    <i name="e_fr_energy">   -131.33813918 </i>
    <i name="e_wo_entrp">   -131.32900868 </i>
    <i name="e_0_energy">   -131.33357393 </i>
   </energy>
  </scstep>
  <scstep>
   <time name="dav">    3.96    3.97</time>
   <time name="total">    4.60    4.62</time>
   <energy>
    <i name="e_fr_energy">   -131.61504417 </i>
    <i name="e_wo_entrp">   -131.60566935 </i>
    <i name="e_0_energy">   -131.61035676 </i>
   </energy>
  </scstep>
  <scstep>
   <time name="dav">    3.89    3.90</time>
   <time name="total">    4.53    4.55</time>
   <energy>
    <i name="e_fr_energy">   -131.82553811 </i>
    <i name="e_wo_entrp">   -131.81714873 </i>
    <i name="e_0_energy">   -131.82134342 </i>
   </energy>
  </scstep>
  <scstep>
   <time name="dav">    3.95    3.96</time>
   <time name="total">    4.60    4.62</time>
   <energy>
    <i name="e_fr_energy">   -132.08988143 </i>
    <i name="e_wo_entrp">   -132.08204308 </i>
    <i name="e_0_energy">   -132.08596225 </i>
   </energy>
  </scstep>
  <scstep>
   <time name="dav">    3.86    3.87</time>
   <time name="total">    4.51    4.53</time>
   <energy>
    <i name="e_fr_energy">   -132.27274271 </i>
    <i name="e_wo_entrp">   -132.26573998 </i>
    <i name="e_0_energy">   -132.26924135 </i>
   </energy>
  </scstep>
  <scstep>
   <time name="dav">    3.94    3.95</time>
   <time name="total">    4.59    4.61</time>
   <energy>
    <i name="e_fr_energy">   -132.46461393 </i>
    <i name="e_wo_entrp">   -132.45705418 </i>
    <i name="e_0_energy">   -132.46083406 </i>
   </energy>
  </scstep>
  <scstep>
   <time name="dav">    4.05    4.06</time>
   <time name="total">    4.69    4.72</time>
   <energy>
    <i name="e_fr_energy">   -132.54762075 </i>
    <i name="e_wo_entrp">   -132.54058151 </i>
    <i name="e_0_energy">   -132.54410113 </i>
   </energy>
  </scstep>
  <scstep>
   <time name="dav">    4.37    4.38</time>
   <time name="total">    5.01    5.03</time>
   <energy>
    <i name="e_fr_energy">   -132.66297008 </i>
    <i name="e_wo_entrp">   -132.65613476 </i>
    <i name="e_0_energy">   -132.65955242 </i>
   </energy>
  </scstep>
  <scstep>
   <time name="dav">    4.11    4.12</time>
   <time name="total">    4.75    4.77</time>
   <energy>
    <i name="e_fr_energy">   -132.75089946 </i>
    <i name="e_wo_entrp">   -132.74445597 </i>
    <i name="e_0_energy">   -132.74767771 </i>
   </energy>
  </scstep>
  <scstep>
   <time name="dav">    4.11    4.12</time>
   <time name="total">    4.76    4.78</time>
   <energy>
    <i name="e_fr_energy">   -132.77502832 </i>
    <i name="e_wo_entrp">   -132.76869952 </i>
    <i name="e_0_energy">   -132.77186392 </i>
   </energy>
  </scstep>
  <scstep>
   <time name="dav">    4.13    4.14</time>
   <time name="total">    4.78    4.80</time>
   <energy>
    <i name="e_fr_energy">   -132.79342521 </i>
    <i name="e_wo_entrp">   -132.78716578 </i>
    <i name="e_0_energy">   -132.79029550 </i>
   </energy>
  </scstep>
  <scstep>
   <time name="dav">    4.43    4.44</time>
   <time name="total">    5.08    5.11</time>
   <energy>
    <i name="e_fr_energy">   -132.80864397 </i>
    <i name="e_wo_entrp">   -132.80233898 </i>
    <i name="e_0_energy">   -132.80549148 </i>
   </energy>
  </scstep>
  <scstep>
   <time name="dav">    4.47    4.48</time>
   <time name="total">    5.12    5.14</time>
   <energy>
    <i name="e_fr_energy">   -132.82575491 </i>
    <i name="e_wo_entrp">   -132.81955684 </i>
    <i name="e_0_energy">   -132.82265587 </i>
   </energy>
  </scstep>
  <scstep>
   <time name="dav">    4.21    4.22</time>
   <time name="total">    4.87    4.89</time>
   <energy>
    <i name="e_fr_energy">   -132.83102787 </i>
    <i name="e_wo_entrp">   -132.82466112 </i>
    <i name="e_0_energy">   -132.82784449 </i>
   </energy>
  </scstep>
  <scstep>
   <time name="dav">    3.86    3.87</time>
   <time name="total">    4.55    4.57</time>
   <energy>
    <i name="e_fr_energy">   -132.83601554 </i>
    <i name="e_wo_entrp">   -132.82969329 </i>
    <i name="e_0_energy">   -132.83285442 </i>
   </energy>
  </scstep>
  <scstep>
   <time name="dav">    3.30    3.31</time>
   <time name="total">    3.96    3.98</time>
   <energy>
    <i name="e_fr_energy">   -132.83836306 </i>
    <i name="e_wo_entrp">   -132.83202687 </i>
    <i name="e_0_energy">   -132.83519496 </i>
   </energy>
  </scstep>
  <scstep>
   <time name="dav">    3.21    3.22</time>
   <time name="total">    3.88    3.89</time>
   <energy>
    <i name="e_fr_energy">   -132.84024269 </i>
    <i name="e_wo_entrp">   -132.83396196 </i>
    <i name="e_0_energy">   -132.83710233 </i>
   </energy>
  </scstep>
  <scstep>
   <time name="dav">    2.95    2.95</time>
   <time name="total">    3.62    3.63</time>
   <energy>
    <i name="e_fr_energy">   -132.84147376 </i>
    <i name="e_wo_entrp">   -132.83519817 </i>
    <i name="e_0_energy">   -132.83833596 </i>
   </energy>
  </scstep>
  <scstep>
   <time name="dav">    2.92    2.92</time>
   <time name="total">    3.58    3.60</time>
   <energy>
    <i name="e_fr_energy">   -132.84295885 </i>
    <i name="e_wo_entrp">   -132.83670049 </i>
    <i name="e_0_energy">   -132.83982967 </i>
   </energy>
  </scstep>
  <scstep>
   <time name="dav">    2.81    2.82</time>
   <time name="total">    3.47    3.49</time>
   <energy>
    <i name="e_fr_energy">   -132.84456531 </i>
    <i name="e_wo_entrp">   -132.83831360 </i>
    <i name="e_0_energy">   -132.84143946 </i>
   </energy>
  </scstep>
  <scstep>
   <time name="dav">    2.92    2.93</time>
   <time name="total">    3.59    3.61</time>
   <energy>
    <i name="e_fr_energy">   -132.84502482 </i>
    <i name="e_wo_entrp">   -132.83872939 </i>
    <i name="e_0_energy">   -132.84187711 </i>
   </energy>
  </scstep>
  <scstep>
   <time name="dav">    2.88    2.89</time>
   <time name="total">    3.55    3.56</time>
   <energy>
    <i name="e_fr_energy">   -132.84601689 </i>
    <i name="e_wo_entrp">   -132.83970645 </i>
    <i name="e_0_energy">   -132.84286167 </i>
   </energy>
  </scstep>
  <scstep>
   <time name="dav">    2.86    2.87</time>
   <time name="total">    3.53    3.56</time>
   <energy>
    <i name="e_fr_energy">   -132.84645707 </i>
    <i name="e_wo_entrp">   -132.84015984 </i>
    <i name="e_0_energy">   -132.84330846 </i>
   </energy>
  </scstep>
  <scstep>
   <time name="dav">    2.75    2.75</time>
   <time name="total">    3.41    3.43</time>
   <energy>
    <i name="e_fr_energy">   -132.84708945 </i>
    <i name="e_wo_entrp">   -132.84079194 </i>
    <i name="e_0_energy">   -132.84394069 </i>
   </energy>
  </scstep>
  <scstep>
   <time name="dav">    2.86    2.87</time>
   <time name="total">    3.52    3.54</time>
   <energy>
    <i name="e_fr_energy">   -132.84727484 </i>
    <i name="e_wo_entrp">   -132.84098831 </i>
    <i name="e_0_energy">   -132.84413158 </i>
   </energy>
  </scstep>
  <scstep>
   <time name="dav">    2.76    2.77</time>
   <time name="total">    3.42    3.44</time>
   <energy>
    <i name="e_fr_energy">   -132.84748380 </i>
    <i name="e_wo_entrp">   -132.84119264 </i>
    <i name="e_0_energy">   -132.84433822 </i>
   </energy>
  </scstep>
  <scstep>
   <time name="dav">    2.78    2.79</time>
   <time name="total">    3.45    3.46</time>
   <energy>
    <i name="e_fr_energy">   -132.84779802 </i>
    <i name="e_wo_entrp">   -132.84149978 </i>
    <i name="e_0_energy">   -132.84464890 </i>
   </energy>
  </scstep>
  <scstep>
   <time name="dav">    2.81    2.82</time>
   <time name="total">    3.48    3.50</time>
   <energy>
    <i name="e_fr_energy">   -132.84791457 </i>
    <i name="e_wo_entrp">   -132.84161018 </i>
    <i name="e_0_energy">   -132.84476237 </i>
   </energy>
  </scstep>
  <scstep>
   <time name="dav">    2.84    2.85</time>
   <time name="total">    3.28    3.30</time>
   <energy>
    <i name="alphaZ">    113.16553179 </i>
    <i name="ewald">  56865.31534056 </i>
    <i name="hartreedc"> -86779.58049844 </i>
    <i name="XCdc">    917.85869456 </i>
    <i name="pawpsdc">  33502.24863010 </i>
    <i name="pawaedc"> -35551.68716220 </i>
    <i name="eentropy">     -0.00630218 </i>
    <i name="bandstr">  -1555.03461729 </i>
    <i name="atom">  32354.87237921 </i>
    <i name="e_fr_energy">   -132.84800389 </i>
    <i name="e_wo_entrp">   -132.84170171 </i>
    <i name="e_0_energy">   -132.84485280 </i>
   </energy>
  </scstep>
  <structure>
   <crystal>
    <varray name="basis" >
     <v>      16.00000000       0.00000000       0.00000000 </v>
     <v>       0.00000000      16.00000000       0.00000000 </v>
     <v>       0.00000000       0.00000000      16.00000000 </v>
    </varray>
    <i name="volume">   4096.00000000 </i>
    <varray name="rec_basis" >
     <v>       0.06250000       0.00000000       0.00000000 </v>
     <v>       0.00000000       0.06250000       0.00000000 </v>
     <v>       0.00000000       0.00000000       0.06250000 </v>
    </varray>
   </crystal>
   <varray name="positions" >
    <v>       0.24204812       0.46574375       0.39358062 </v>
    <v>       0.47664750       0.46996062       0.67724500 </v>
    <v>       0.56549250       0.67648500       0.38362437 </v>
    <v>       0.57311312       0.26554500       0.38499375 </v>
    <v>       0.33768562       0.46766813       0.62356500 </v>
    <v>       0.65978875       0.62061375       0.49154062 </v>
    <v>       0.66524938       0.32527375       0.49257937 </v>
    <v>       0.32675000       0.57369062       0.34481625 </v>
    <v>       0.33114375       0.36122812       0.34507188 </v>
    <v>       0.40257313       0.46809063       0.25190625 </v>
    <v>       0.53750625       0.26414000       0.53140812 </v>
    <v>       0.53031438       0.67711438       0.53047625 </v>
    <v>       0.65811125       0.54895063       0.35866813 </v>
    <v>       0.65967312       0.39560375       0.35880750 </v>
    <v>       0.42268937       0.59525687       0.59476000 </v>
    <v>       0.42683313       0.34299625       0.59471812 </v>
    <v>       0.46809750       0.59455000       0.30764875 </v>
    <v>       0.47352250       0.34516125       0.30878812 </v>
    <v>       0.42711875       0.30087688       0.44386313 </v>
    <v>       0.42129875       0.63628937       0.44334312 </v>
    <v>       0.31992125       0.54301125       0.49424562 </v>
    <v>       0.32328812       0.39197125       0.49426000 </v>
    <v>       0.54435625       0.47145750       0.30680125 </v>
    <v>       0.57267187       0.54664000       0.59011250 </v>
    <v>       0.57482875       0.39594625       0.59044750 </v>
    <v>       0.66008312       0.47271500       0.48947438 </v>
    <v>       0.45226000       0.46980438       0.53473625 </v>
    <v>       0.53660750       0.54776313       0.44005500 </v>
    <v>       0.53881625       0.39369375       0.44078812 </v>
    <v>       0.41230875       0.46914563       0.39380312 </v>
    <v>       0.50195125       0.62468188       0.61289375 </v>
    <v>       0.48527562       0.58933437       0.63770000 </v>
   </varray>
  </structure>
  <varray name="forces" >
   <v>       0.04877168      -0.08303288      -0.03237869 </v>
   <v>      -0.19725224      -0.45739246       0.02168997 </v>
   <v>       0.01745586      -0.02710578       0.10889112 </v>
   <v>      -0.03787191       0.02679719       0.02315101 </v>
   <v>      -0.07379765      -0.04950362      -0.07266500 </v>
   <v>       0.08153063      -0.02735033      -0.14281400 </v>
   <v>      -0.08870056      -0.00946968      -0.05364864 </v>
   <v>       0.04305945      -0.01746170       0.02354064 </v>
   <v>       0.05346027       0.02164042      -0.00600477 </v>
   <v>       0.02213046      -0.02395634       0.05614568 </v>
   <v>      -0.02928073       0.07287654      -0.00868267 </v>
   <v>       0.41667511       0.82745275      -1.19120033 </v>
   <v>      -0.05037247      -0.03661884      -0.00640749 </v>
   <v>      -0.04713158       0.07012966      -0.01600530 </v>
   <v>      -8.71386221      -0.07610589      -4.38023543 </v>
   <v>       0.07144837       0.09581536       0.07161106 </v>
   <v>       0.01894977      -0.04626630       0.01304479 </v>
   <v>      -0.01265650      -0.02173694       0.00013678 </v>
   <v>       0.07318927      -0.01771429      -0.07039514 </v>
   <v>      -0.05321311      -0.06488662      -0.22839807 </v>
   <v>      -0.00799506      -0.08909367      -0.00198189 </v>
   <v>      -0.03049388       0.07957332       0.00102312 </v>
   <v>       0.01644937       0.01025669      -0.06475063 </v>
   <v>       1.14466916      -0.76148472      -0.33821026 </v>
   <v>       0.01543463      -0.05944667      -0.07838987 </v>
   <v>      -0.12375204       0.06691820       0.08375388 </v>
   <v>      -0.04523701      -0.43505157      -0.21623574 </v>
   <v>       0.03750926      -0.04457039      -0.06124704 </v>
   <v>       0.00390285      -0.00389854      -0.01046083 </v>
   <v>      -0.01817889       0.01749187       0.04023479 </v>
   <v>       3.78752582       5.51326016      -1.33758984 </v>
   <v>       3.67763386      -4.45006494       7.87447879 </v>
  </varray>
  <varray name="stress" >
   <v>       3.64648837       0.77850969       1.07200673 </v>
   <v>       0.77850966       1.60690351      -0.68870246 </v>
   <v>       1.07200674      -0.68870248       2.17367095 </v>
  </varray>
  <energy>
   <i name="e_fr_energy">   -132.84800389 </i>
   <i name="e_wo_entrp">   -132.84170171 </i>
   <i name="e_0_energy">   -132.84485280 </i>
  </energy>
  <time name="totalsc">  266.48  267.84</time>
 </calculation>
 <calculation>
  <scstep>
   <time name="dav">    4.13    4.14</time>
   <time name="total">    4.76    4.77</time>
   <energy>
    <i name="alphaZ">    113.16553179 </i>
    <i name="ewald">  56776.70579821 </i>
    <i name="hartreedc"> -86705.88343225 </i>
    <i name="XCdc">    917.25152439 </i>
    <i name="pawpsdc">  33502.22801973 </i>
    <i name="pawaedc"> -35551.66691430 </i>
    <i name="eentropy">     -0.01390549 </i>
    <i name="bandstr">  -1533.99334059 </i>
    <i name="atom">  32354.87237921 </i>
    <i name="e_fr_energy">   -127.33433928 </i>
    <i name="e_wo_entrp">   -127.32043379 </i>
    <i name="e_0_energy">   -127.32738653 </i>
   </energy>
  </scstep>
  <scstep>
   <time name="dav">    4.25    4.26</time>
   <time name="total">    4.88    4.90</time>
   <energy>
    <i name="e_fr_energy">   -208.74297228 </i>
    <i name="e_wo_entrp">   -208.73132888 </i>
    <i name="e_0_energy">   -208.73715058 </i>
   </energy>
  </scstep>
  <scstep>
   <time name="dav">    5.06    5.07</time>
   <time name="total">    5.68    5.70</time>
   <energy>
    <i name="e_fr_energy">   -193.56736365 </i>
    <i name="e_wo_entrp">   -193.55430004 </i>
    <i name="e_0_energy">   -193.56083185 </i>
   </energy>
  </scstep>
  <scstep>
   <time name="dav">    4.29    4.30</time>
   <time name="total">    4.92    4.95</time>
   <energy>
    <i name="e_fr_energy">   -206.11394892 </i>
    <i name="e_wo_entrp">   -206.09962901 </i>
    <i name="e_0_energy">   -206.10678897 </i>
   </energy>
  </scstep>
  <scstep>
   <time name="dav">    4.72    4.73</time>
   <time name="total">    5.35    5.38</time>
   <energy>
    <i name="e_fr_energy">   -170.95462934 </i>
    <i name="e_wo_entrp">   -170.93559048 </i>
    <i name="e_0_energy">   -170.94510991 </i>
   </energy>
  </scstep>
  <scstep>
   <time name="dav">    4.95    4.96</time>
   <time name="total">    5.58    5.60</time>
   <energy>
    <i name="e_fr_energy">   -150.43104558 </i>
    <i name="e_wo_entrp">   -150.41737152 </i>
    <i name="e_0_energy">   -150.42420855 </i>
   </energy>
  </scstep>
  <scstep>
   <time name="dav">    4.40    4.41</time>
   <time name="total">    5.03    5.05</time>
   <energy>
    <i name="e_fr_energy">   -143.59899084 </i>
    <i name="e_wo_entrp">   -143.59043589 </i>
    <i name="e_0_energy">   -143.59471336 </i>
   </energy>
  </scstep>
  <scstep>
   <time name="dav">    4.40    4.41</time>
   <time name="total">    5.03    5.06</time>
   <energy>
    <i name="e_fr_energy">   -142.56183122 </i>
    <i name="e_wo_entrp">   -142.55175176 </i>
    <i name="e_0_energy">   -142.55679149 </i>
   </energy>
  </scstep>
  <scstep>
   <time name="dav">    4.16    4.17</time>
   <time name="total">    4.79    4.81</time>
   <energy>
    <i name="e_fr_energy">   -139.92645195 </i>
    <i name="e_wo_entrp">   -139.91593516 </i>
    <i name="e_0_energy">   -139.92119356 </i>
   </energy>
  </scstep>
  <scstep>
   <time name="dav">    3.99    4.00</time>
   <time name="total">    4.62    4.64</time>
   <energy>
    <i name="e_fr_energy">   -138.90306620 </i>
    <i name="e_wo_entrp">   -138.89508939 </i>
    <i name="e_0_energy">   -138.89907779 </i>
   </energy>
  </scstep>
  <scstep>
   <time name="dav">    5.07    5.08</time>
   <time name="total">    5.70    5.72</time>
   <energy>
    <i name="e_fr_energy">   -138.42305353 </i>
    <i name="e_wo_entrp">   -138.41257104 </i>
    <i name="e_0_energy">   -138.41781229 </i>
   </energy>
  </scstep>
  <scstep>
   <time name="dav">    4.05    4.06</time>
   <time name="total">    4.68    4.70</time>
   <energy>
    <i name="e_fr_energy">   -137.52158470 </i>
    <i name="e_wo_entrp">   -137.51747729 </i>
    <i name="e_0_energy">   -137.51953099 </i>
   </energy>
  </scstep>
  <scstep>
   <time name="dav">    4.66    4.67</time>
   <time name="total">    5.29    5.31</time>
   <energy>
    <i name="e_fr_energy">   -137.10445366 </i>
    <i name="e_wo_entrp">   -137.09756683 </i>
    <i name="e_0_energy">   -137.10101025 </i>
   </energy>
  </scstep>
  <scstep>
   <time name="dav">    4.11    4.11</time>
   <time name="total">    4.74    4.76</time>
   <energy>
    <i name="e_fr_energy">   -136.62394054 </i>
    <i name="e_wo_entrp">   -136.62133770 </i>
    <i name="e_0_energy">   -136.62263912 </i>
   </energy>
  </scstep>
  <scstep>
   <time name="dav">    4.89    4.90</time>
   <time name="total">    5.52    5.54</time>
   <energy>
    <i name="e_fr_energy">   -136.18814051 </i>
    <i name="e_wo_entrp">   -136.18317095 </i>
    <i name="e_0_energy">   -136.18565573 </i>
   </energy>
  </scstep>
  <scstep>
   <time name="dav">    4.57    4.58</time>
   <time name="total">    5.20    5.22</time>
   <energy>
    <i name="e_fr_energy">   -135.17030652 </i>
    <i name="e_wo_entrp">   -135.16255688 </i>
    <i name="e_0_energy">   -135.16643170 </i>
   </energy>
  </scstep>
  <scstep>
   <time name="dav">    5.74    5.76</time>
   <time name="total">    6.38    6.40</time>
   <energy>
    <i name="e_fr_energy">   -134.22555697 </i>
    <i name="e_wo_entrp">   -134.21820842 </i>
    <i name="e_0_energy">   -134.22188269 </i>
   </energy>
  </scstep>
  <scstep>
   <time name="dav">    4.72    4.73</time>
   <time name="total">    5.35    5.37</time>
   <energy>
    <i name="e_fr_energy">   -134.28623867 </i>
    <i name="e_wo_entrp">   -134.27511659 </i>
    <i name="e_0_energy">   -134.28067763 </i>
   </energy>
  </scstep>
  <scstep>
   <time name="dav">    3.91    3.92</time>
   <time name="total">    4.54    4.56</time>
   <energy>
    <i name="e_fr_energy">   -134.31447734 </i>
    <i name="e_wo_entrp">   -134.30626330 </i>
    <i name="e_0_energy">   -134.31037032 </i>
   </energy>
  </scstep>
  <scstep>
   <time name="dav">    4.02    4.03</time>
   <time name="total">    4.65    4.67</time>
   <energy>
    <i name="e_fr_energy">   -134.41154272 </i>
    <i name="e_wo_entrp">   -134.40191362 </i>
    <i name="e_0_energy">   -134.40672817 </i>
   </energy>
  </scstep>
  <scstep>
   <time name="dav">    4.43    4.44</time>
   <time name="total">    5.06    5.08</time>
   <energy>
    <i name="e_fr_energy">   -134.59044808 </i>
    <i name="e_wo_entrp">   -134.58087308 </i>
    <i name="e_0_energy">   -134.58566058 </i>
   </energy>
  </scstep>
  <scstep>
   <time name="dav">    4.18    4.19</time>
   <time name="total">    4.81    4.83</time>
   <energy>
    <i name="e_fr_energy">   -134.60582245 </i>
    <i name="e_wo_entrp">   -134.59726292 </i>
    <i name="e_0_energy">   -134.60154268 </i>
   </energy>
  </scstep>
  <scstep>
   <time name="dav">    4.51    4.52</time>
   <time name="total">    5.15    5.16</time>
   <energy>
    <i name="e_fr_energy">   -134.55225789 </i>
    <i name="e_wo_entrp">   -134.54355931 </i>
    <i name="e_0_energy">   -134.54790860 </i>
   </energy>
  </scstep>
  <scstep>
   <time name="dav">    4.07    4.08</time>
   <time name="total">    4.71    4.72</time>
   <energy>
    <i name="e_fr_energy">   -134.52589940 </i>
    <i name="e_wo_entrp">   -134.51606181 </i>
    <i name="e_0_energy">   -134.52098061 </i>
   </energy>
  </scstep>
  <scstep>
   <time name="dav">    4.11    4.12</time>
   <time name="total">    4.74    4.76</time>
   <energy>
    <i name="e_fr_energy">   -134.54372471 </i>
    <i name="e_wo_entrp">   -134.53549664 </i>
    <i name="e_0_energy">   -134.53961068 </i>
   </energy>
  </scstep>
  <scstep>
   <time name="dav">    3.97    3.98</time>
   <time name="total">    4.61    4.63</time>
   <energy>
    <i name="e_fr_energy">   -134.51338250 </i>
    <i name="e_wo_entrp">   -134.50474570 </i>
    <i name="e_0_energy">   -134.50906410 </i>
   </energy>
  </scstep>
  <scstep>
   <time name="dav">    4.21    4.22</time>
   <time name="total">    4.85    4.86</time>
   <energy>
    <i name="e_fr_energy">   -134.51678223 </i>
    <i name="e_wo_entrp">   -134.50631908 </i>
    <i name="e_0_energy">   -134.51155066 </i>
   </energy>
  </scstep>
  <scstep>
   <time name="dav">    4.07    4.08</time>
   <time name="total">    4.71    4.73</time>
   <energy>
    <i name="e_fr_energy">   -134.51794099 </i>
    <i name="e_wo_entrp">   -134.50985840 </i>
    <i name="e_0_energy">   -134.51389970 </i>
   </energy>
  </scstep>
  <scstep>
   <time name="dav">    4.81    4.82</time>
   <time name="total">    5.45    5.47</time>
   <energy>
    <i name="e_fr_energy">   -134.51194953 </i>
    <i name="e_wo_entrp">   -134.50333300 </i>
    <i name="e_0_energy">   -134.50764126 </i>
   </energy>
  </scstep>
  <scstep>
   <time name="dav">    4.95    4.96</time>
   <time name="total">    5.59    5.61</time>
   <energy>
    <i name="e_fr_energy">   -134.51389294 </i>
    <i name="e_wo_entrp">   -134.50680682 </i>
    <i name="e_0_energy">   -134.51034988 </i>
   </energy>
  </scstep>
  <scstep>
   <time name="dav">    4.96    4.98</time>
   <time name="total">    5.60    5.63</time>
   <energy>
    <i name="e_fr_energy">   -134.51879543 </i>
    <i name="e_wo_entrp">   -134.51150406 </i>
    <i name="e_0_energy">   -134.51514974 </i>
   </energy>
  </scstep>
  <scstep>
   <time name="dav">    4.04    4.05</time>
   <time name="total">    4.69    4.70</time>
   <energy>
    <i name="e_fr_energy">   -134.53272792 </i>
    <i name="e_wo_entrp">   -134.52577815 </i>
    <i name="e_0_energy">   -134.52925303 </i>
   </energy>
  </scstep>
  <scstep>
   <time name="dav">    4.05    4.06</time>
   <time name="total">    4.69    4.71</time>
   <energy>
    <i name="e_fr_energy">   -134.54099604 </i>
    <i name="e_wo_entrp">   -134.53417304 </i>
    <i name="e_0_energy">   -134.53758454 </i>
   </energy>
  </scstep>
  <scstep>
   <time name="dav">    4.71    4.72</time>
   <time name="total">    5.35    5.37</time>
   <energy>
    <i name="e_fr_energy">   -134.56570189 </i>
    <i name="e_wo_entrp">   -134.55917147 </i>
    <i name="e_0_energy">   -134.56243668 </i>
   </energy>
  </scstep>
  <scstep>
   <time name="dav">    4.05    4.06</time>
   <time name="total">    4.69    4.71</time>
   <energy>
    <i name="e_fr_energy">   -134.57238851 </i>
    <i name="e_wo_entrp">   -134.56571325 </i>
    <i name="e_0_energy">   -134.56905088 </i>
   </energy>
  </scstep>
  <scstep>
   <time name="dav">    4.83    4.84</time>
   <time name="total">    5.48    5.49</time>
   <energy>
    <i name="e_fr_energy">   -134.58132704 </i>
    <i name="e_wo_entrp">   -134.57509047 </i>
    <i name="e_0_energy">   -134.57820876 </i>
   </energy>
  </scstep>
  <scstep>
   <time name="dav">    3.96    3.97</time>
   <time name="total">    4.61    4.63</time>
   <energy>
    <i name="e_fr_energy">   -134.58463761 </i>
    <i name="e_wo_entrp">   -134.57821600 </i>
    <i name="e_0_energy">   -134.58142680 </i>
   </energy>
  </scstep>
  <scstep>
   <time name="dav">    4.12    4.13</time>
   <time name="total">    4.78    4.80</time>
   <energy>
    <i name="e_fr_energy">   -134.58974987 </i>
    <i name="e_wo_entrp">   -134.58347929 </i>
    <i name="e_0_energy">   -134.58661458 </i>
   </energy>
  </scstep>
  <scstep>
   <time name="dav">    3.83    3.84</time>
   <time name="total">    4.48    4.50</time>
   <energy>
    <i name="e_fr_energy">   -134.59339187 </i>
    <i name="e_wo_entrp">   -134.58718468 </i>
    <i name="e_0_energy">   -134.59028828 </i>
   </energy>
  </scstep>
  <scstep>
   <time name="dav">    3.32    3.33</time>
   <time name="total">    3.97    3.99</time>
   <energy>
    <i name="e_fr_energy">   -134.59812746 </i>
    <i name="e_wo_entrp">   -134.59197321 </i>
    <i name="e_0_energy">   -134.59505034 </i>
   </energy>
  </scstep>
  <scstep>
   <time name="dav">    3.96    3.97</time>
   <time name="total">    4.62    4.64</time>
   <energy>
    <i name="e_fr_energy">   -134.60019253 </i>
    <i name="e_wo_entrp">   -134.59410000 </i>
    <i name="e_0_energy">   -134.59714627 </i>
   </energy>
  </scstep>
  <scstep>
   <time name="dav">    2.97    2.98</time>
   <time name="total">    3.63    3.65</time>
   <energy>
    <i name="e_fr_energy">   -134.60232976 </i>
    <i name="e_wo_entrp">   -134.59629666 </i>
    <i name="e_0_energy">   -134.59931321 </i>
   </energy>
  </scstep>
  <scstep>
   <time name="dav">    3.00    3.00</time>
   <time name="total">    3.66    3.68</time>
   <energy>
    <i name="e_fr_energy">   -134.60328107 </i>
    <i name="e_wo_entrp">   -134.59725221 </i>
    <i name="e_0_energy">   -134.60026664 </i>
   </energy>
  </scstep>
  <scstep>
   <time name="dav">    2.97    2.97</time>
   <time name="total">    3.63    3.65</time>
   <energy>
    <i name="e_fr_energy">   -134.60481527 </i>
    <i name="e_wo_entrp">   -134.59885587 </i>
    <i name="e_0_energy">   -134.60183557 </i>
   </energy>
  </scstep>
  <scstep>
   <time name="dav">    3.02    3.03</time>
   <time name="total">    3.69    3.71</time>
   <energy>
    <i name="e_fr_energy">   -134.60524392 </i>
    <i name="e_wo_entrp">   -134.59933628 </i>
    <i name="e_0_energy">   -134.60229010 </i>
   </energy>
  </scstep>
  <scstep>
   <time name="dav">    3.14    3.15</time>
   <time name="total">    3.80    3.82</time>
   <energy>
    <i name="e_fr_energy">   -134.60610373 </i>
    <i name="e_wo_entrp">   -134.60030914 </i>
    <i name="e_0_energy">   -134.60320644 </i>
   </energy>
  </scstep>
  <scstep>
   <time name="dav">    3.96    3.97</time>
   <time name="total">    4.62    4.64</time>
   <energy>
    <i name="e_fr_energy">   -134.60490069 </i>
    <i name="e_wo_entrp">   -134.59922819 </i>
    <i name="e_0_energy">   -134.60206444 </i>
   </energy>
  </scstep>
  <scstep>
   <time name="dav">    3.29    3.30</time>
   <time name="total">    3.95    3.96</time>
   <energy>
    <i name="e_fr_energy">   -134.60597589 </i>
    <i name="e_wo_entrp">   -134.60031428 </i>
    <i name="e_0_energy">   -134.60314508 </i>
   </energy>
  </scstep>
  <scstep>
   <time name="dav">    2.81    2.82</time>
   <time name="total">    3.47    3.49</time>
   <energy>
    <i name="e_fr_energy">   -134.60639917 </i>
    <i name="e_wo_entrp">   -134.60071425 </i>
    <i name="e_0_energy">   -134.60355671 </i>
   </energy>
  </scstep>
  <scstep>
   <time name="dav">    2.81    2.82</time>
   <time name="total">    3.48    3.49</time>
   <energy>
    <i name="e_fr_energy">   -134.60681076 </i>
    <i name="e_wo_entrp">   -134.60115161 </i>
    <i name="e_0_energy">   -134.60398119 </i>
   </energy>
  </scstep>
  <scstep>
   <time name="dav">    2.87    2.88</time>
   <time name="total">    3.56    3.58</time>
   <energy>
    <i name="e_fr_energy">   -134.60736141 </i>
    <i name="e_wo_entrp">   -134.60170964 </i>
    <i name="e_0_energy">   -134.60453552 </i>
   </energy>
  </scstep>
  <scstep>
   <time name="dav">    2.83    2.84</time>
   <time name="total">    3.49    3.51</time>
   <energy>
    <i name="e_fr_energy">   -134.60755675 </i>
    <i name="e_wo_entrp">   -134.60191969 </i>
    <i name="e_0_energy">   -134.60473822 </i>
   </energy>
  </scstep>
  <scstep>
   <time name="dav">    2.83    2.84</time>
   <time name="total">    3.49    3.51</time>
   <energy>
    <i name="e_fr_energy">   -134.60802437 </i>
    <i name="e_wo_entrp">   -134.60239296 </i>
    <i name="e_0_energy">   -134.60520867 </i>
   </energy>
  </scstep>
  <scstep>
   <time name="dav">    2.89    2.89</time>
   <time name="total">    3.55    3.56</time>
   <energy>
    <i name="e_fr_energy">   -134.60823866 </i>
    <i name="e_wo_entrp">   -134.60259955 </i>
    <i name="e_0_energy">   -134.60541910 </i>
   </energy>
  </scstep>
  <scstep>
   <time name="dav">    2.73    2.73</time>
   <time name="total">    3.39    3.41</time>
   <energy>
    <i name="e_fr_energy">   -134.60839107 </i>
    <i name="e_wo_entrp">   -134.60275599 </i>
    <i name="e_0_energy">   -134.60557353 </i>
   </energy>
  </scstep>
  <scstep>
   <time name="dav">    2.81    2.82</time>
   <time name="total">    3.47    3.49</time>
   <energy>
    <i name="e_fr_energy">   -134.60850093 </i>
    <i name="e_wo_entrp">   -134.60285586 </i>
    <i name="e_0_energy">   -134.60567839 </i>
   </energy>
  </scstep>
  <scstep>
   <time name="dav">    2.78    2.78</time>
   <time name="total">    3.44    3.45</time>
   <energy>
    <i name="e_fr_energy">   -134.60867156 </i>
    <i name="e_wo_entrp">   -134.60302627 </i>
    <i name="e_0_energy">   -134.60584892 </i>
   </energy>
  </scstep>
  <scstep>
   <time name="dav">    2.73    2.73</time>
   <time name="total">    3.17    3.19</time>
   <energy>
    <i name="alphaZ">    113.16553179 </i>
    <i name="ewald">  56776.70579821 </i>
    <i name="hartreedc"> -86693.36564513 </i>
    <i name="XCdc">    916.59580690 </i>
    <i name="pawpsdc">  33352.89204580 </i>
    <i name="pawaedc"> -35402.30449118 </i>
    <i name="eentropy">     -0.00564338 </i>
    <i name="bandstr">  -1553.16446986 </i>
    <i name="atom">  32354.87237921 </i>
    <i name="e_fr_energy">   -134.60868764 </i>
    <i name="e_wo_entrp">   -134.60304426 </i>
    <i name="e_0_energy">   -134.60586595 </i>
   </energy>
  </scstep>
  <structure>
   <crystal>
    <varray name="basis" >
     <v>      16.00000000       0.00000000       0.00000000 </v>
     <v>       0.00000000      16.00000000       0.00000000 </v>
     <v>       0.00000000       0.00000000      16.00000000 </v>
    </varray>
    <i name="volume">   4096.00000000 </i>
    <varray name="rec_basis" >
     <v>       0.06250000       0.00000000       0.00000000 </v>
     <v>       0.00000000       0.06250000       0.00000000 </v>
     <v>       0.00000000       0.00000000       0.06250000 </v>
    </varray>
   </crystal>
   <varray name="positions" >
    <v>       0.24219518       0.46549339       0.39348300 </v>
    <v>       0.47605275       0.46858151       0.67731040 </v>
    <v>       0.56554513       0.67640327       0.38395270 </v>
    <v>       0.57299893       0.26562580       0.38506355 </v>
    <v>       0.33746311       0.46751886       0.62334590 </v>
    <v>       0.66003458       0.62053128       0.49111002 </v>
    <v>       0.66498193       0.32524520       0.49241762 </v>
    <v>       0.32687983       0.57363798       0.34488723 </v>
    <v>       0.33130494       0.36129337       0.34505377 </v>
    <v>       0.40263985       0.46801839       0.25207554 </v>
    <v>       0.53741796       0.26435973       0.53138195 </v>
    <v>       0.53157072       0.67960928       0.52688458 </v>
    <v>       0.65795937       0.54884021       0.35864881 </v>
    <v>       0.65953102       0.39581520       0.35875924 </v>
    <v>       0.39641563       0.59502740       0.58155286 </v>
    <v>       0.42704855       0.34328515       0.59493404 </v>
    <v>       0.46815464       0.59441050       0.30768808 </v>
    <v>       0.47348434       0.34509571       0.30878854 </v>
    <v>       0.42733943       0.30082346       0.44365087 </v>
    <v>       0.42113830       0.63609373       0.44265447 </v>
    <v>       0.31989714       0.54274262       0.49423965 </v>
    <v>       0.32319618       0.39221118       0.49426308 </v>
    <v>       0.54440585       0.47148843       0.30660602 </v>
    <v>       0.57612324       0.54434400       0.58909274 </v>
    <v>       0.57487529       0.39576701       0.59021114 </v>
    <v>       0.65970999       0.47291677       0.48972691 </v>
    <v>       0.45212360       0.46849262       0.53408426 </v>
    <v>       0.53672060       0.54762874       0.43987033 </v>
    <v>       0.53882802       0.39368200       0.44075658 </v>
    <v>       0.41225394       0.46919837       0.39392444 </v>
    <v>       0.51337127       0.64130527       0.60886069 </v>
    <v>       0.49636430       0.57591669       0.66144286 </v>
   </varray>
  </structure>
  <varray name="forces" >
   <v>      -0.10352663      -0.02590770      -0.06207236 </v>
   <v>      -0.06680302       0.54741178      -0.26420966 </v>
   <v>       0.09855770      -0.03231604      -0.25905477 </v>
   <v>      -0.02100396       0.00876598       0.01001488 </v>
   <v>      -0.32725846      -0.46106449       0.08096914 </v>
   <v>       0.15044579       0.00640968      -0.23911089 </v>
   <v>      -0.04895087      -0.01447160      -0.07753315 </v>
   <v>       0.01303611      -0.08036481      -0.03075076 </v>
   <v>       0.09683224       0.01761583      -0.00456495 </v>
   <v>      -0.01248692      -0.01431035       0.05213147 </v>
   <v>      -0.06375307       0.01066233       0.02603310 </v>
   <v>      -0.17346357       0.14118927      -0.53641562 </v>
   <v>      -0.00972523      -0.06641607      -0.02387075 </v>
   <v>      -0.00705321       0.04153166      -0.04169569 </v>
   <v>       2.98673494       1.42202682       2.58667624 </v>
   <v>      -0.01210141      -0.10153638       0.07211161 </v>
   <v>       0.01162137       0.02063909      -0.08065174 </v>
   <v>       0.00916725      -0.00712008      -0.01322539 </v>
   <v>       0.03106082      -0.01617745      -0.06349000 </v>
   <v>       0.07306518       0.07361546      -0.50013033 </v>
   <v>      -1.83878151      -1.20724855      -2.03452958 </v>
   <v>      -0.02558300      -0.02150132      -0.01183594 </v>
   <v>       0.02634642      -0.04168627      -0.05583883 </v>
   <v>      -0.80129010       0.75144917       0.50876976 </v>
   <v>       0.03055574      -0.10083980      -0.06935408 </v>
   <v>       0.02404776      -0.07654484      -0.03884492 </v>
   <v>       0.10452017       0.35765229       0.19638469 </v>
   <v>      -0.07284908       0.00106248       0.03662653 </v>
   <v>       0.01691868      -0.00090559      -0.04038088 </v>
   <v>       0.02607114      -0.05080687      -0.10080316 </v>
   <v>      -0.20053426      -0.21776109       0.87472136 </v>
   <v>       0.08618295      -0.86305257       0.10392464 </v>
  </varray>
  <varray name="stress" >
   <v>      -0.40165434       1.12163036       0.59666796 </v>
   <v>       1.12163038      -0.19702638       0.60285017 </v>
   <v>       0.59666797       0.60285016       2.23983633 </v>
  </varray>
  <energy>
   <i name="e_fr_energy">   -134.60868764 </i>
   <i name="e_wo_entrp">   -134.60304426 </i>
   <i name="e_0_energy">   -134.60586595 </i>
  </energy>
  <time name="totalsc">  271.95  273.15</time>
 </calculation>
 <calculation>
  <scstep>
   <time name="dav">    3.73    3.74</time>
   <time name="total">    4.36    4.37</time>
   <energy>
    <i name="alphaZ">    113.16553179 </i>
    <i name="ewald">  56588.96508388 </i>
    <i name="hartreedc"> -86509.80723186 </i>
    <i name="XCdc">    916.41350908 </i>
    <i name="pawpsdc">  33352.84188395 </i>
    <i name="pawaedc"> -35402.25479705 </i>
    <i name="eentropy">     -0.00288210 </i>
    <i name="bandstr">  -1548.96148912 </i>
    <i name="atom">  32354.87237921 </i>
    <i name="e_fr_energy">   -134.76801220 </i>
    <i name="e_wo_entrp">   -134.76513011 </i>
    <i name="e_0_energy">   -134.76657115 </i>
   </energy>
  </scstep>
  <scstep>
   <time name="dav">    4.80    4.81</time>
   <time name="total">    5.42    5.45</time>
   <energy>
    <i name="e_fr_energy">   -136.57857169 </i>
    <i name="e_wo_entrp">   -136.56021297 </i>
    <i name="e_0_energy">   -136.56939233 </i>
   </energy>
  </scstep>
  <scstep>
   <time name="dav">    3.99    4.00</time>
   <time name="total">    4.62    4.63</time>
   <energy>
    <i name="e_fr_energy">   -135.48084921 </i>
    <i name="e_wo_entrp">   -135.47260674 </i>
    <i name="e_0_energy">   -135.47672798 </i>
   </energy>
  </scstep>
  <scstep>
   <time name="dav">    4.60    4.61</time>
   <time name="total">    5.23    5.25</time>
   <energy>
    <i name="e_fr_energy">   -135.33513246 </i>
    <i name="e_wo_entrp">   -135.33359245 </i>
    <i name="e_0_energy">   -135.33436245 </i>
   </energy>
  </scstep>
  <scstep>
   <time name="dav">    4.41    4.42</time>
   <time name="total">    5.03    5.05</time>
   <energy>
    <i name="e_fr_energy">   -135.36020115 </i>
    <i name="e_wo_entrp">   -135.35483223 </i>
    <i name="e_0_energy">   -135.35751669 </i>
   </energy>
  </scstep>
  <scstep>
   <time name="dav">    3.93    3.94</time>
   <time name="total">    4.56    4.58</time>
   <energy>
    <i name="e_fr_energy">   -135.26018098 </i>
    <i name="e_wo_entrp">   -135.25503992 </i>
    <i name="e_0_energy">   -135.25761045 </i>
   </energy>
  </scstep>
  <scstep>
   <time name="dav">    4.28    4.29</time>
   <time name="total">    4.91    4.93</time>
   <energy>
    <i name="e_fr_energy">   -135.27568826 </i>
    <i name="e_wo_entrp">   -135.27226322 </i>
    <i name="e_0_energy">   -135.27397574 </i>
   </energy>
  </scstep>
  <scstep>
   <time name="dav">    4.12    4.13</time>
   <time name="total">    4.75    4.77</time>
   <energy>
    <i name="e_fr_energy">   -135.27713722 </i>
    <i name="e_wo_entrp">   -135.27356411 </i>
    <i name="e_0_energy">   -135.27535066 </i>
   </energy>
  </scstep>
  <scstep>
   <time name="dav">    3.98    3.99</time>
   <time name="total">    4.61    4.63</time>
   <energy>
    <i name="e_fr_energy">   -135.26131629 </i>
    <i name="e_wo_entrp">   -135.25824312 </i>
    <i name="e_0_energy">   -135.25977971 </i>
   </energy>
  </scstep>
  <scstep>
   <time name="dav">    4.25    4.26</time>
   <time name="total">    4.88    4.90</time>
   <energy>
    <i name="e_fr_energy">   -135.27564851 </i>
    <i name="e_wo_entrp">   -135.27276418 </i>
    <i name="e_0_energy">   -135.27420635 </i>
   </energy>
  </scstep>
  <scstep>
   <time name="dav">    4.27    4.28</time>
   <time name="total">    4.90    4.93</time>
   <energy>
    <i name="e_fr_energy">   -135.26729825 </i>
    <i name="e_wo_entrp">   -135.26474241 </i>
    <i name="e_0_energy">   -135.26602033 </i>
   </energy>
  </scstep>
  <scstep>
   <time name="dav">    4.00    4.01</time>
   <time name="total">    4.63    4.65</time>
   <energy>
    <i name="e_fr_energy">   -135.26191452 </i>
    <i name="e_wo_entrp">   -135.25851239 </i>
    <i name="e_0_energy">   -135.26021346 </i>
   </energy>
  </scstep>
  <scstep>
   <time name="dav">    4.59    4.60</time>
   <time name="total">    5.22    5.24</time>
   <energy>
    <i name="e_fr_energy">   -135.26680768 </i>
    <i name="e_wo_entrp">   -135.26333662 </i>
    <i name="e_0_energy">   -135.26507215 </i>
   </energy>
  </scstep>
  <scstep>
   <time name="dav">    4.00    4.01</time>
   <time name="total">    4.63    4.65</time>
   <energy>
    <i name="e_fr_energy">   -135.26298089 </i>
    <i name="e_wo_entrp">   -135.25991742 </i>
    <i name="e_0_energy">   -135.26144916 </i>
   </energy>
  </scstep>
  <scstep>
   <time name="dav">    4.02    4.03</time>
   <time name="total">    4.66    4.67</time>
   <energy>
    <i name="e_fr_energy">   -135.26207799 </i>
    <i name="e_wo_entrp">   -135.25866354 </i>
    <i name="e_0_energy">   -135.26037076 </i>
   </energy>
  </scstep>
  <scstep>
   <time name="dav">    4.56    4.58</time>
   <time name="total">    5.20    5.22</time>
   <energy>
    <i name="e_fr_energy">   -135.26298944 </i>
    <i name="e_wo_entrp">   -135.25981152 </i>
    <i name="e_0_energy">   -135.26140048 </i>
   </energy>
  </scstep>
  <scstep>
   <time name="dav">    3.86    3.87</time>
   <time name="total">    4.31    4.32</time>
   <energy>
    <i name="alphaZ">    113.16553179 </i>
    <i name="ewald">  56588.96508388 </i>
    <i name="hartreedc"> -86511.20515566 </i>
    <i name="XCdc">    916.40543292 </i>
    <i name="pawpsdc">  33284.00104463 </i>
    <i name="pawaedc"> -35332.25647215 </i>
    <i name="eentropy">     -0.00326651 </i>
    <i name="bandstr">  -1549.20757681 </i>
    <i name="atom">  32354.87237921 </i>
    <i name="e_fr_energy">   -135.26299869 </i>
    <i name="e_wo_entrp">   -135.25973218 </i>
    <i name="e_0_energy">   -135.26136543 </i>
   </energy>
  </scstep>
  <structure>
   <crystal>
    <varray name="basis" >
     <v>      16.00000000       0.00000000       0.00000000 </v>
     <v>       0.00000000      16.00000000       0.00000000 </v>
     <v>       0.00000000       0.00000000      16.00000000 </v>
    </varray>
    <i name="volume">   4096.00000000 </i>
    <varray name="rec_basis" >
     <v>       0.06250000       0.00000000       0.00000000 </v>
     <v>       0.00000000       0.06250000       0.00000000 </v>
     <v>       0.00000000       0.00000000       0.06250000 </v>
    </varray>
   </crystal>
   <varray name="positions" >
    <v>       0.24194438       0.46543063       0.39333263 </v>
    <v>       0.47589092       0.46990763       0.67667035 </v>
    <v>       0.56578389       0.67632499       0.38332513 </v>
    <v>       0.57294805       0.26564703       0.38508782 </v>
    <v>       0.33667032       0.46640193       0.62354205 </v>
    <v>       0.66039904       0.62054681       0.49053077 </v>
    <v>       0.66486334       0.32521014       0.49222979 </v>
    <v>       0.32691141       0.57344329       0.34481273 </v>
    <v>       0.33153952       0.36133605       0.34504271 </v>
    <v>       0.40260960       0.46798373       0.25220183 </v>
    <v>       0.53726352       0.26438556       0.53144501 </v>
    <v>       0.53115050       0.67995132       0.52558511 </v>
    <v>       0.65793581       0.54867932       0.35859098 </v>
    <v>       0.65951393       0.39591581       0.35865823 </v>
    <v>       0.40365106       0.59847229       0.58781914 </v>
    <v>       0.42701924       0.34303918       0.59510874 </v>
    <v>       0.46818279       0.59446050       0.30749270 </v>
    <v>       0.47350655       0.34507846       0.30875650 </v>
    <v>       0.42741467       0.30078427       0.44349707 </v>
    <v>       0.42131531       0.63627207       0.44144289 </v>
    <v>       0.31544266       0.53981804       0.48931096 </v>
    <v>       0.32313421       0.39215909       0.49423441 </v>
    <v>       0.54446967       0.47138744       0.30647075 </v>
    <v>       0.57418210       0.54616440       0.59032524 </v>
    <v>       0.57494931       0.39552272       0.59004313 </v>
    <v>       0.65976825       0.47273134       0.48963280 </v>
    <v>       0.45237681       0.46935904       0.53456001 </v>
    <v>       0.53654412       0.54763131       0.43995906 </v>
    <v>       0.53886900       0.39367980       0.44065876 </v>
    <v>       0.41231710       0.46907529       0.39368024 </v>
    <v>       0.51288547       0.64077774       0.61097972 </v>
    <v>       0.49657308       0.57382593       0.66169462 </v>
   </varray>
  </structure>
  <varray name="forces" >
   <v>      -0.32500044      -0.26230101      -0.35578945 </v>
   <v>      -0.16868475       0.23905299      -0.10569020 </v>
   <v>       0.10379063      -0.02570889      -0.24847424 </v>
   <v>      -0.01394219      -0.02136652      -0.00772971 </v>
   <v>      -0.10849312      -0.02398350      -0.22155841 </v>
   <v>       0.06092611      -0.04130849      -0.15764312 </v>
   <v>      -0.02434538      -0.03016177      -0.06596493 </v>
   <v>       0.00194623       0.00633192      -0.25113204 </v>
   <v>       0.03507237      -0.01302137      -0.02068822 </v>
   <v>       0.00316114      -0.02158644       0.00696888 </v>
   <v>      -0.04579324       0.00129215       0.01523112 </v>
   <v>      -0.17736508       0.01742304      -0.19132160 </v>
   <v>      -0.01384806      -0.04625616      -0.03984860 </v>
   <v>       0.00261905       0.03918806      -0.04112887 </v>
   <v>       1.36149720      -0.13900452       0.46737870 </v>
   <v>       0.00390747       0.00629239       0.01441295 </v>
   <v>       0.02364377      -0.02829783      -0.13250688 </v>
   <v>       0.02221798      -0.00781602      -0.00684816 </v>
   <v>       0.02179409      -0.00768283      -0.02639411 </v>
   <v>      -0.15748659      -0.13723411      -0.04972290 </v>
   <v>       0.23756089       0.28215853       0.39870137 </v>
   <v>       0.03748657      -0.19319231       0.06243705 </v>
   <v>       0.00244755       0.00382063      -0.05391347 </v>
   <v>      -0.44277151       0.55841453       0.20161104 </v>
   <v>      -0.01453314       0.02482926      -0.04991456 </v>
   <v>      -0.07170298       0.03796298       0.05373669 </v>
   <v>      -0.19974106       0.34737776       0.09455219 </v>
   <v>      -0.00098673      -0.01707888       0.01903474 </v>
   <v>      -0.03268293       0.03098393      -0.00288640 </v>
   <v>       0.09711598      -0.01286083       0.03139305 </v>
   <v>      -0.15248689       0.11802583       0.40862257 </v>
   <v>      -0.06532292      -0.68429252       0.25507550 </v>
  </varray>
  <varray name="stress" >
   <v>      -1.39559017       0.61817571       0.04220912 </v>
   <v>       0.61817572      -0.83286050       0.32548748 </v>
   <v>       0.04220912       0.32548749       0.96087272 </v>
  </varray>
  <energy>
   <i name="e_fr_energy">   -135.26299869 </i>
   <i name="e_wo_entrp">   -135.25973218 </i>
   <i name="e_0_energy">   -135.26136543 </i>
  </energy>
  <time name="totalsc">   87.00   87.38</time>
 </calculation>
 <calculation>
  <scstep>
   <time name="dav">    3.73    3.74</time>
   <time name="total">    4.36    4.37</time>
   <energy>
    <i name="alphaZ">    113.16553179 </i>
    <i name="ewald">  56578.12385063 </i>
    <i name="hartreedc"> -86500.70443881 </i>
    <i name="XCdc">    916.39822637 </i>
    <i name="pawpsdc">  33283.71998996 </i>
    <i name="pawaedc"> -35331.96842495 </i>
    <i name="eentropy">     -0.00268737 </i>
[...]
   </varray>
  </structure>
  <varray name="forces" >
   <v>       0.00938605       0.00268014       0.00013934 </v>
   <v>       0.00932992      -0.00215739      -0.00726912 </v>
   <v>       0.00916941      -0.00396197       0.00913506 </v>
   <v>      -0.00902954      -0.00668584      -0.00290626 </v>
   <v>       0.00740043      -0.00109526       0.00451570 </v>
   <v>       0.00805718      -0.00936027       0.00239027 </v>
   <v>      -0.00042927      -0.01437553      -0.00771779 </v>
   <v>       0.00422932       0.00495164       0.00573099 </v>
   <v>      -0.00002507       0.00032521       0.00092843 </v>
   <v>      -0.00183466       0.00486657       0.00305530 </v>
   <v>       0.00016859      -0.00799945      -0.00242984 </v>
   <v>       0.00045070      -0.01488062       0.03807991 </v>
   <v>       0.00123538      -0.00633277       0.00207410 </v>
   <v>      -0.00518646      -0.00958540      -0.01015904 </v>
   <v>       0.00912028      -0.00385244       0.01127068 </v>
   <v>       0.00488405       0.00006579       0.00313937 </v>
   <v>       0.00239626       0.00630698       0.00086290 </v>
   <v>       0.00094717       0.00335249      -0.00101567 </v>
   <v>      -0.00134102      -0.00383445      -0.00131589 </v>
   <v>       0.01019010      -0.00884708       0.00578803 </v>
   <v>       0.00042026      -0.00170447       0.00207415 </v>
   <v>       0.00263609      -0.00102442       0.00091147 </v>
   <v>      -0.00169953       0.00582902      -0.00326592 </v>
   <v>       0.01818000      -0.03574282      -0.01807143 </v>
   <v>       0.00268789      -0.01240773      -0.00518530 </v>
   <v>       0.01029545      -0.01159771      -0.00819141 </v>
   <v>       0.00304996      -0.00059358       0.00130606 </v>
   <v>       0.01240982      -0.01045133      -0.00112886 </v>
   <v>       0.00011960      -0.00770235      -0.00105303 </v>
   <v>      -0.00055186       0.00269832      -0.00250129 </v>
   <v>      -0.13539802       0.13532504      -0.00605506 </v>
   <v>       0.02873154       0.00779168      -0.01313586 </v>
  </varray>
  <varray name="stress" >
   <v>      -0.60120662      -0.09661545      -0.04346497 </v>
   <v>      -0.09661545      -0.40949442       0.06268613 </v>
   <v>      -0.04346498       0.06268612      -0.60027173 </v>
  </varray>
  <energy>
   <i name="e_fr_energy">   -135.92517589 </i>
   <i name="e_wo_entrp">   -135.92183388 </i>
   <i name="e_0_energy">   -135.92350489 </i>
  </energy>
  <time name="totalsc">   58.70   58.98</time>
  <eigenvalues>
   <array>
    <dimension dim="1">band</dimension>
    <dimension dim="2">kpoint</dimension>
    <dimension dim="3">spin</dimension>
    <field>eigene</field>
    <field>occ</field>
    <set>
     <set comment="spin 1">
      <set comment="kpoint 1">
       <r>  -11.0247    1.0000 </r>
       <r>  -10.2015    1.0000 </r>
       <r>   -9.2413    1.0000 </r>
       <r>   -9.2190    1.0000 </r>
       <r>   -8.6682    1.0000 </r>
       <r>   -8.4032    1.0000 </r>
       <r>   -7.8211    1.0000 </r>
       <r>   -7.8121    1.0000 </r>
       <r>   -7.7356    1.0000 </r>
       <r>   -7.6901    1.0000 </r>
       <r>   -7.6385    1.0000 </r>
       <r>   -7.5420    1.0000 </r>
       <r>   -7.5033    1.0000 </r>
       <r>   -7.4469    1.0000 </r>
       <r>   -7.3587    1.0000 </r>
       <r>   -7.2454    1.0000 </r>
       <r>   -7.2063    1.0000 </r>
       <r>   -7.1806    1.0000 </r>
       <r>   -7.1532    1.0000 </r>
       <r>   -7.1106    1.0000 </r>
       <r>   -7.0088    1.0000 </r>
       <r>   -6.9894    1.0000 </r>
       <r>   -6.9436    1.0000 </r>
       <r>   -6.8811    1.0000 </r>
       <r>   -6.8049    1.0000 </r>
       <r>   -6.7346    1.0000 </r>
       <r>   -6.6506    1.0000 </r>
       <r>   -6.5820    1.0000 </r>
       <r>   -6.5029    1.0000 </r>
       <r>   -6.4713    1.0000 </r>
       <r>   -6.4434    1.0000 </r>
       <r>   -6.4269    1.0000 </r>
       <r>   -6.3873    1.0000 </r>
       <r>   -6.3461    1.0000 </r>
       <r>   -6.3143    1.0000 </r>
       <r>   -6.2816    1.0000 </r>
       <r>   -6.2369    1.0000 </r>
       <r>   -6.2042    1.0000 </r>
       <r>   -6.1939    1.0000 </r>
       <r>   -6.1192    1.0000 </r>
       <r>   -6.1036    1.0000 </r>
       <r>   -6.0740    1.0000 </r>
       <r>   -6.0303    1.0000 </r>
       <r>   -6.0131    1.0000 </r>
       <r>   -5.9643    1.0000 </r>
       <r>   -5.9450    1.0000 </r>
       <r>   -5.9347    1.0000 </r>
       <r>   -5.9129    1.0000 </r>
       <r>   -5.8817    1.0000 </r>
       <r>   -5.8635    1.0000 </r>
       <r>   -5.8492    1.0000 </r>
       <r>   -5.8334    1.0000 </r>
       <r>   -5.7877    1.0000 </r>
       <r>   -5.7521    1.0000 </r>
       <r>   -5.7160    1.0000 </r>
       <r>   -5.7007    1.0000 </r>
       <r>   -5.6448    1.0000 </r>
       <r>   -5.6087    1.0000 </r>
       <r>   -5.5863    1.0000 </r>
       <r>   -5.5650    1.0000 </r>
       <r>   -5.5182    1.0000 </r>
       <r>   -5.5105    1.0000 </r>
       <r>   -5.4739    1.0000 </r>
       <r>   -5.4596    1.0000 </r>
       <r>   -5.4079    1.0000 </r>
       <r>   -5.3696    1.0000 </r>
       <r>   -5.3351    1.0000 </r>
       <r>   -5.2908    1.0000 </r>
       <r>   -5.2645    1.0000 </r>
       <r>   -5.2323    1.0000 </r>
       <r>   -5.2080    1.0000 </r>
       <r>   -5.2045    1.0000 </r>
       <r>   -5.1595    1.0000 </r>
       <r>   -5.1412    1.0000 </r>
       <r>   -5.1170    1.0000 </r>
       <r>   -5.0857    1.0000 </r>
       <r>   -5.0804    1.0000 </r>
       <r>   -5.0526    1.0000 </r>
       <r>   -5.0423    1.0000 </r>
       <r>   -5.0044    1.0000 </r>
       <r>   -4.9854    1.0000 </r>
       <r>   -4.9652    1.0000 </r>
       <r>   -4.9329    1.0000 </r>
       <r>   -4.9019    1.0000 </r>
       <r>   -4.8689    1.0000 </r>
       <r>   -4.8431    1.0000 </r>
       <r>   -4.7979    1.0000 </r>
       <r>   -4.7816    1.0000 </r>
       <r>   -4.7612    1.0000 </r>
       <r>   -4.7559    1.0000 </r>
       <r>   -4.7113    1.0000 </r>
       <r>   -4.6849    1.0000 </r>
       <r>   -4.6604    1.0000 </r>
       <r>   -4.6296    1.0000 </r>
       <r>   -4.6073    1.0000 </r>
       <r>   -4.5747    1.0000 </r>
       <r>   -4.5697    1.0000 </r>
       <r>   -4.5516    1.0000 </r>
       <r>   -4.5263    1.0000 </r>
       <r>   -4.5223    1.0000 </r>
       <r>   -4.4974    1.0000 </r>
       <r>   -4.4835    1.0000 </r>
       <r>   -4.4583    1.0000 </r>
       <r>   -4.4443    1.0000 </r>
       <r>   -4.4256    1.0000 </r>
       <r>   -4.4034    1.0000 </r>
       <r>   -4.3941    1.0000 </r>
       <r>   -4.3719    1.0000 </r>
       <r>   -4.3425    1.0000 </r>
       <r>   -4.3300    1.0000 </r>
       <r>   -4.3238    1.0000 </r>
       <r>   -4.3097    1.0000 </r>
       <r>   -4.2905    1.0000 </r>
       <r>   -4.2702    1.0000 </r>
       <r>   -4.2594    1.0000 </r>
       <r>   -4.2458    1.0000 </r>
       <r>   -4.2330    1.0000 </r>
       <r>   -4.2082    1.0000 </r>
       <r>   -4.1922    1.0000 </r>
       <r>   -4.1768    1.0000 </r>
       <r>   -4.1713    1.0000 </r>
       <r>   -4.1445    1.0000 </r>
       <r>   -4.1370    1.0000 </r>
       <r>   -4.1295    1.0000 </r>
       <r>   -4.1121    1.0000 </r>
       <r>   -4.1059    1.0000 </r>
       <r>   -4.0949    1.0000 </r>
       <r>   -4.0714    1.0000 </r>
       <r>   -4.0631    1.0000 </r>
       <r>   -4.0607    1.0000 </r>
       <r>   -4.0367    1.0000 </r>
       <r>   -4.0349    1.0000 </r>
       <r>   -4.0309    1.0000 </r>
       <r>   -4.0093    1.0000 </r>
       <r>   -4.0034    1.0000 </r>
       <r>   -4.0007    1.0000 </r>
       <r>   -3.9918    1.0000 </r>
       <r>   -3.9814    1.0000 </r>
       <r>   -3.9662    1.0000 </r>
       <r>   -3.9552    1.0000 </r>
       <r>   -3.9519    1.0000 </r>
       <r>   -3.9380    1.0000 </r>
       <r>   -3.9270    1.0000 </r>
       <r>   -3.9240    1.0000 </r>
       <r>   -3.9008    1.0000 </r>
       <r>   -3.8925    1.0000 </r>
       <r>   -3.8774    1.0000 </r>
       <r>   -3.8741    1.0000 </r>
       <r>   -3.8599    1.0000 </r>
       <r>   -3.8499    1.0000 </r>
       <r>   -3.8387    1.0000 </r>
       <r>   -3.8294    1.0000 </r>
       <r>   -3.8254    1.0000 </r>
       <r>   -3.8136    1.0000 </r>
       <r>   -3.8003    1.0000 </r>
       <r>   -3.7695    1.0000 </r>
       <r>   -3.7667    1.0000 </r>
       <r>   -3.7527    1.0000 </r>
       <r>   -3.6497    1.0000 </r>
       <r>   -3.6177    1.0000 </r>
       <r>   -3.3491    1.0000 </r>
       <r>   -3.1457    0.0004 </r>
       <r>   -2.9435    0.0000 </r>
       <r>   -2.7844    0.0000 </r>
       <r>   -2.7261    0.0000 </r>
       <r>   -2.6622    0.0000 </r>
       <r>   -2.4704    0.0000 </r>
       <r>   -2.2381    0.0000 </r>
       <r>   -2.1226    0.0000 </r>
       <r>   -1.9872    0.0000 </r>
       <r>   -1.7170    0.0000 </r>
       <r>   -1.2915    0.0000 </r>
       <r>   -1.1072    0.0000 </r>
       <r>   -1.0161    0.0000 </r>
       <r>   -0.8552    0.0000 </r>
       <r>   -0.8244    0.0000 </r>
       <r>   -0.7847    0.0000 </r>
       <r>   -0.7374    0.0000 </r>
       <r>   -0.6208    0.0000 </r>
       <r>   -0.5642    0.0000 </r>
       <r>   -0.4806    0.0000 </r>
       <r>   -0.4264    0.0000 </r>
       <r>   -0.3391    0.0000 </r>
       <r>   -0.3054    0.0000 </r>
       <r>   -0.1853    0.0000 </r>
       <r>    0.7425    0.0000 </r>
       <r>    0.8582    0.0000 </r>
       <r>    0.9721    0.0000 </r>
       <r>    1.0598    0.0000 </r>
       <r>    1.1244    0.0000 </r>
       <r>    1.1430    0.0000 </r>
       <r>    1.1742    0.0000 </r>
       <r>    1.2914    0.0000 </r>
       <r>    1.3949    0.0000 </r>
       <r>    1.4388    0.0000 </r>
       <r>    1.4483    0.0000 </r>
       <r>    1.4921    0.0000 </r>
       <r>    1.5195    0.0000 </r>
      </set>
     </set>
     <set comment="spin 2">
      <set comment="kpoint 1">
       <r>  -11.0361    1.0000 </r>
       <r>  -10.1890    1.0000 </r>
       <r>   -9.2264    1.0000 </r>
       <r>   -9.2109    1.0000 </r>
       <r>   -8.5890    1.0000 </r>
       <r>   -8.2533    1.0000 </r>
       <r>   -7.6548    1.0000 </r>
       <r>   -7.6237    1.0000 </r>
       <r>   -7.5491    1.0000 </r>
       <r>   -7.4059    1.0000 </r>
       <r>   -7.3459    1.0000 </r>
       <r>   -7.1975    1.0000 </r>
       <r>   -7.1024    1.0000 </r>
       <r>   -7.0801    1.0000 </r>
       <r>   -6.9964    1.0000 </r>
       <r>   -6.8569    1.0000 </r>
       <r>   -6.7968    1.0000 </r>
       <r>   -6.7618    1.0000 </r>
       <r>   -6.7263    1.0000 </r>
       <r>   -6.6588    1.0000 </r>
       <r>   -6.5955    1.0000 </r>
       <r>   -6.5517    1.0000 </r>
       <r>   -6.5088    1.0000 </r>
       <r>   -6.4721    1.0000 </r>
       <r>   -6.2661    1.0000 </r>
       <r>   -6.1977    1.0000 </r>
       <r>   -6.0966    1.0000 </r>
       <r>   -6.0000    1.0000 </r>
       <r>   -5.9365    1.0000 </r>
       <r>   -5.8896    1.0000 </r>
       <r>   -5.8672    1.0000 </r>
       <r>   -5.8201    1.0000 </r>
       <r>   -5.7864    1.0000 </r>
       <r>   -5.7443    1.0000 </r>
       <r>   -5.7182    1.0000 </r>
       <r>   -5.6902    1.0000 </r>
       <r>   -5.6482    1.0000 </r>
       <r>   -5.6146    1.0000 </r>
       <r>   -5.5792    1.0000 </r>
       <r>   -5.5345    1.0000 </r>
       <r>   -5.5114    1.0000 </r>
       <r>   -5.4718    1.0000 </r>
       <r>   -5.4415    1.0000 </r>
       <r>   -5.4291    1.0000 </r>
       <r>   -5.3558    1.0000 </r>
       <r>   -5.3409    1.0000 </r>
       <r>   -5.3080    1.0000 </r>
       <r>   -5.3074    1.0000 </r>
       <r>   -5.2868    1.0000 </r>
       <r>   -5.2681    1.0000 </r>
       <r>   -5.2052    1.0000 </r>
       <r>   -5.1822    1.0000 </r>
       <r>   -5.1760    1.0000 </r>
       <r>   -5.1359    1.0000 </r>
       <r>   -5.1073    1.0000 </r>
       <r>   -5.0784    1.0000 </r>
       <r>   -5.0182    1.0000 </r>
       <r>   -5.0162    1.0000 </r>
       <r>   -4.9277    1.0000 </r>
       <r>   -4.9094    1.0000 </r>
       <r>   -4.8907    1.0000 </r>
       <r>   -4.8665    1.0000 </r>
       <r>   -4.8435    1.0000 </r>
       <r>   -4.8177    1.0000 </r>
       <r>   -4.7868    1.0000 </r>
       <r>   -4.7271    1.0000 </r>
       <r>   -4.6912    1.0000 </r>
       <r>   -4.6420    1.0000 </r>
       <r>   -4.6241    1.0000 </r>
       <r>   -4.6109    1.0000 </r>
       <r>   -4.6060    1.0000 </r>
       <r>   -4.5539    1.0000 </r>
       <r>   -4.5360    1.0000 </r>
       <r>   -4.5055    1.0000 </r>
       <r>   -4.4906    1.0000 </r>
       <r>   -4.4408    1.0000 </r>
       <r>   -4.4077    1.0000 </r>
       <r>   -4.3909    1.0000 </r>
       <r>   -4.3859    1.0000 </r>
       <r>   -4.3572    1.0000 </r>
       <r>   -4.3400    1.0000 </r>
       <r>   -4.2986    1.0000 </r>
       <r>   -4.2872    1.0000 </r>
       <r>   -4.2596    1.0000 </r>
       <r>   -4.2278    1.0000 </r>
       <r>   -4.1987    1.0000 </r>
       <r>   -4.1446    1.0000 </r>
       <r>   -4.1362    1.0000 </r>
       <r>   -4.1043    1.0000 </r>
       <r>   -4.0855    1.0000 </r>
       <r>   -4.0591    1.0000 </r>
       <r>   -4.0400    1.0000 </r>
       <r>   -4.0295    1.0000 </r>
       <r>   -3.9966    1.0000 </r>
       <r>   -3.9812    1.0000 </r>
       <r>   -3.9561    1.0000 </r>
       <r>   -3.9386    1.0000 </r>
       <r>   -3.9109    1.0000 </r>
       <r>   -3.8954    1.0000 </r>
       <r>   -3.8792    1.0000 </r>
       <r>   -3.8534    1.0000 </r>
       <r>   -3.8403    1.0000 </r>
       <r>   -3.8290    1.0000 </r>
       <r>   -3.7948    1.0000 </r>
       <r>   -3.7810    1.0000 </r>
       <r>   -3.7761    1.0000 </r>
       <r>   -3.7576    1.0000 </r>
       <r>   -3.7211    1.0000 </r>
       <r>   -3.7123    1.0000 </r>
       <r>   -3.6971    1.0000 </r>
       <r>   -3.6600    1.0000 </r>
       <r>   -3.6552    1.0000 </r>
       <r>   -3.6383    1.0000 </r>
       <r>   -3.6324    1.0000 </r>
       <r>   -3.6135    1.0000 </r>
       <r>   -3.5874    1.0000 </r>
       <r>   -3.5650    1.0000 </r>
       <r>   -3.5528    1.0000 </r>
       <r>   -3.5464    1.0000 </r>
       <r>   -3.5300    1.0000 </r>
       <r>   -3.5243    1.0000 </r>
       <r>   -3.4994    1.0000 </r>
       <r>   -3.4936    1.0000 </r>
       <r>   -3.4771    1.0000 </r>
       <r>   -3.4525    1.0000 </r>
       <r>   -3.4500    1.0000 </r>
       <r>   -3.4110    1.0000 </r>
       <r>   -3.4008    1.0000 </r>
       <r>   -3.3983    1.0000 </r>
       <r>   -3.3842    1.0000 </r>
       <r>   -3.3788    1.0000 </r>
       <r>   -3.3745    1.0000 </r>
       <r>   -3.3640    1.0000 </r>
       <r>   -3.3496    1.0000 </r>
       <r>   -3.3311    1.0000 </r>
       <r>   -3.3054    1.0000 </r>
       <r>   -3.2936    1.0000 </r>
       <r>   -3.2790    1.0000 </r>
       <r>   -3.2616    1.0000 </r>
       <r>   -3.2580    1.0000 </r>
       <r>   -3.2159    0.9427 </r>
       <r>   -3.1707    0.0528 </r>
       <r>   -3.1559    0.0038 </r>
       <r>   -3.1442    0.0002 </r>
       <r>   -3.1347    0.0000 </r>
       <r>   -3.1145    0.0000 </r>
       <r>   -3.1021    0.0000 </r>
       <r>   -3.0991    0.0000 </r>
       <r>   -3.0857    0.0000 </r>
       <r>   -3.0762    0.0000 </r>
       <r>   -3.0462    0.0000 </r>
       <r>   -3.0360    0.0000 </r>
       <r>   -3.0300    0.0000 </r>
       <r>   -3.0057    0.0000 </r>
       <r>   -3.0005    0.0000 </r>
       <r>   -2.9830    0.0000 </r>
       <r>   -2.9555    0.0000 </r>
       <r>   -2.9351    0.0000 </r>
       <r>   -2.9187    0.0000 </r>
       <r>   -2.8127    0.0000 </r>
       <r>   -2.8042    0.0000 </r>
       <r>   -2.6936    0.0000 </r>
       <r>   -2.5481    0.0000 </r>
       <r>   -2.4224    0.0000 </r>
       <r>   -2.3718    0.0000 </r>
       <r>   -2.2992    0.0000 </r>
       <r>   -2.2023    0.0000 </r>
       <r>   -1.9341    0.0000 </r>
       <r>   -1.8211    0.0000 </r>
       <r>   -1.7083    0.0000 </r>
       <r>   -1.4552    0.0000 </r>
       <r>   -1.1281    0.0000 </r>
       <r>   -0.9421    0.0000 </r>
       <r>   -0.8739    0.0000 </r>
       <r>   -0.6975    0.0000 </r>
       <r>   -0.6553    0.0000 </r>
       <r>   -0.5914    0.0000 </r>
       <r>   -0.5584    0.0000 </r>
       <r>   -0.4331    0.0000 </r>
       <r>   -0.3876    0.0000 </r>
       <r>   -0.3015    0.0000 </r>
       <r>   -0.2678    0.0000 </r>
       <r>   -0.1740    0.0000 </r>
       <r>   -0.1116    0.0000 </r>
       <r>   -0.0146    0.0000 </r>
       <r>    0.8529    0.0000 </r>
       <r>    0.9885    0.0000 </r>
       <r>    1.0729    0.0000 </r>
       <r>    1.1185    0.0000 </r>
       <r>    1.2404    0.0000 </r>
       <r>    1.2555    0.0000 </r>
       <r>    1.2886    0.0000 </r>
       <r>    1.3808    0.0000 </r>
       <r>    1.4629    0.0000 </r>
       <r>    1.5021    0.0000 </r>
       <r>    1.5489    0.0000 </r>
       <r>    1.5626    0.0000 </r>
       <r>    1.6014    0.0000 </r>
      </set>
     </set>
    </set>
   </array>
  </eigenvalues>
  <separator name="orbital magnetization" >
   <v name="MAGDIPOLOUT">      0.00000000      0.00000000      0.00000000</v>
  </separator>
 </calculation>
 <structure name="finalpos" >
  <crystal>
   <varray name="basis" >
    <v>      16.00000000       0.00000000       0.00000000 </v>
    <v>       0.00000000      16.00000000       0.00000000 </v>
    <v>       0.00000000       0.00000000      16.00000000 </v>
   </varray>
   <i name="volume">   4096.00000000 </i>
   <varray name="rec_basis" >
    <v>       0.06250000       0.00000000       0.00000000 </v>
    <v>       0.00000000       0.06250000       0.00000000 </v>
    <v>       0.00000000       0.00000000       0.06250000 </v>
   </varray>
  </crystal>
  <varray name="positions" >
   <v>       0.24330717       0.46441831       0.39184916 </v>
   <v>       0.47250126       0.46358558       0.67731952 </v>
   <v>       0.56733556       0.67366535       0.37715918 </v>
   <v>       0.57179538       0.26381831       0.38576563 </v>
   <v>       0.33589726       0.46779829       0.62073042 </v>
   <v>       0.66002753       0.62043641       0.48680686 </v>
   <v>       0.66233525       0.32632347       0.49151792 </v>
   <v>       0.32554718       0.57312534       0.34350497 </v>
   <v>       0.33242766       0.36017682       0.34249868 </v>
   <v>       0.40160066       0.46633118       0.25102864 </v>
   <v>       0.53552767       0.26454080       0.53189062 </v>
   <v>       0.53104636       0.67881369       0.52210836 </v>
   <v>       0.65852893       0.54714581       0.35622789 </v>
   <v>       0.65700323       0.39646574       0.35858894 </v>
   <v>       0.42594786       0.59706634       0.60091473 </v>
   <v>       0.42492613       0.34299403       0.59172996 </v>
   <v>       0.46605343       0.59396139       0.30443109 </v>
   <v>       0.47506678       0.34456973       0.30781182 </v>
   <v>       0.42656748       0.29780236       0.44125272 </v>
   <v>       0.42119124       0.63399267       0.44056011 </v>
   <v>       0.32043661       0.54395499       0.49441330 </v>
   <v>       0.32439928       0.39283113       0.49138002 </v>
   <v>       0.54363705       0.47241946       0.30396286 </v>
   <v>       0.57093536       0.55103079       0.59421886 </v>
   <v>       0.57197116       0.39770379       0.58838946 </v>
   <v>       0.65632485       0.47420377       0.49061501 </v>
   <v>       0.45160555       0.47196006       0.53349232 </v>
   <v>       0.53702013       0.54670249       0.43820499 </v>
   <v>       0.53589193       0.39304585       0.43920999 </v>
   <v>       0.41212326       0.46966984       0.39235573 </v>
   <v>       0.50943991       0.66121361       0.61796337 </v>
   <v>       0.49960652       0.55963571       0.67881876 </v>
  </varray>
 </structure>
</modeling>
