  32  32   0   0
  0.1280000E+03  0.1600000E-08  0.1600000E-08  0.1600000E-08  0.5000000E-15
  1.000000000000000E-004
  CAR 
 unknown system                          
      2.19828771    -11.62474805  301     -3.19694588      1.00000000
    -11.625  0.0000E+00  0.0000E+00  0.0000E+00  0.0000E+00
    -11.579  0.0000E+00  0.0000E+00  0.0000E+00  0.0000E+00
    -11.533  0.0000E+00  0.0000E+00  0.0000E+00  0.0000E+00
    -11.487  0.0000E+00  0.0000E+00  0.0000E+00  0.0000E+00
    -11.440  0.0000E+00  0.0000E+00  0.0000E+00  0.0000E+00
    -11.394  0.0000E+00  0.0000E+00  0.0000E+00  0.0000E+00
    -11.348  0.0000E+00  0.0000E+00  0.0000E+00  0.0000E+00
    -11.302  0.0000E+00  0.0000E+00  0.0000E+00  0.0000E+00
    -11.256  0.0000E+00  0.0000E+00  0.0000E+00  0.0000E+00
    -11.210  0.0000E+00  0.0000E+00  0.0000E+00  0.0000E+00
    -11.164  0.0000E+00  0.0000E+00  0.0000E+00  0.0000E+00
    -11.118  0.0000E+00  0.0000E+00  0.0000E+00  0.0000E+00
    -11.072  0.1351E-10  0.3524E-08  0.6223E-12  0.1624E-09
    -11.026  0.9555E-04  0.1380E-02  0.4403E-05  0.6357E-04
    -10.980  0.4326E-01  0.6242E-01  0.1998E-02  0.2940E-02
    -10.934  0.2897E-01  0.8540E-02  0.3333E-02  0.3333E-02
    -10.888  0.1623E-04  0.3211E-06  0.3333E-02  0.3333E-02
    -10.841  0.4732E-12  0.4899E-15  0.3333E-02  0.3333E-02
    -10.795  0.0000E+00  0.0000E+00  0.3333E-02  0.3333E-02
    -10.749  0.0000E+00  0.0000E+00  0.3333E-02  0.3333E-02
    -10.703  0.0000E+00  0.0000E+00  0.3333E-02  0.3333E-02
    -10.657  0.0000E+00  0.0000E+00  0.3333E-02  0.3333E-02
    -10.611  0.0000E+00  0.0000E+00  0.3333E-02  0.3333E-02
    -10.565  0.0000E+00  0.0000E+00  0.3333E-02  0.3333E-02
    -10.519  0.0000E+00  0.0000E+00  0.3333E-02  0.3333E-02
    -10.473  0.0000E+00  0.0000E+00  0.3333E-02  0.3333E-02
    -10.427  0.0000E+00  0.0000E+00  0.3333E-02  0.3333E-02
    -10.381  0.0000E+00  0.0000E+00  0.3333E-02  0.3333E-02
    -10.335  0.0000E+00  0.0000E+00  0.3333E-02  0.3333E-02
    -10.289  0.0000E+00  0.0000E+00  0.3333E-02  0.3333E-02
    -10.242  0.0000E+00  0.0000E+00  0.3333E-02  0.3333E-02
    -10.196  0.0000E+00  0.0000E+00  0.3333E-02  0.3333E-02
    -10.150  0.0000E+00  0.0000E+00  0.3333E-02  0.3333E-02
    -10.104  0.0000E+00  0.0000E+00  0.3333E-02  0.3333E-02
    -10.058  0.1309E-14  0.0000E+00  0.3333E-02  0.3333E-02
    -10.012  0.5748E-06  0.2642E-08  0.3333E-02  0.3333E-02
     -9.966  0.1049E-01  0.1214E-02  0.3817E-02  0.3389E-02
     -9.920  0.6084E-01  0.6182E-01  0.6620E-02  0.6238E-02
     -9.874  0.1005E-02  0.9308E-02  0.6667E-02  0.6667E-02
     -9.828  0.1738E-08  0.4084E-06  0.6667E-02  0.6667E-02
     -9.782  0.0000E+00  0.7309E-15  0.6667E-02  0.6667E-02
     -9.736  0.0000E+00  0.0000E+00  0.6667E-02  0.6667E-02
     -9.690  0.0000E+00  0.0000E+00  0.6667E-02  0.6667E-02
     -9.643  0.0000E+00  0.0000E+00  0.6667E-02  0.6667E-02
     -9.597  0.0000E+00  0.0000E+00  0.6667E-02  0.6667E-02
     -9.551  0.9537E-09  0.2410E-16  0.6667E-02  0.6667E-02
     -9.505  0.7639E-03  0.5269E-07  0.6702E-02  0.6667E-02
     -9.459  0.5925E-01  0.4305E-02  0.9432E-02  0.6865E-02
     -9.413  0.1233E-01  0.6481E-01  0.1000E-01  0.9851E-02
     -9.367  0.9222E-06  0.3230E-02  0.1000E-01  0.1000E-01
     -9.321  0.2992E-14  0.2586E-07  0.1000E-01  0.1000E-01
     -9.275  0.8550E-07  0.1747E-08  0.1000E-01  0.1000E-01
     -9.229  0.5205E-02  0.1007E-02  0.1024E-01  0.1005E-01
     -9.183  0.6452E-01  0.6086E-01  0.1321E-01  0.1285E-01
     -9.137  0.2618E-02  0.1048E-01  0.1333E-01  0.1333E-01
     -9.091  0.1558E-07  0.5724E-06  0.1333E-01  0.1333E-01
     -9.044  0.0000E+00  0.1301E-14  0.1333E-01  0.1333E-01
     -8.998  0.0000E+00  0.0000E+00  0.1333E-01  0.1333E-01
     -8.952  0.4016E-17  0.0000E+00  0.1333E-01  0.1333E-01
     -8.906  0.1157E-07  0.0000E+00  0.1333E-01  0.1333E-01
     -8.860  0.2310E-02  0.0000E+00  0.1344E-01  0.1333E-01
     -8.814  0.6424E-01  0.7018E-09  0.1640E-01  0.1333E-01
     -8.768  0.5789E-02  0.6626E-03  0.1667E-01  0.1336E-01
     -8.722  0.1127E-06  0.5835E-01  0.1667E-01  0.1605E-01
     -8.676  0.1084E-15  0.1333E-01  0.1667E-01  0.1667E-01
     -8.630  0.5578E-07  0.1166E-05  0.1667E-01  0.1667E-01
     -8.584  0.4403E-02  0.4393E-14  0.1687E-01  0.1667E-01
     -8.538  0.6479E-01  0.8718E-08  0.1985E-01  0.1667E-01
     -8.492  0.3153E-02  0.2047E-02  0.2000E-01  0.1676E-01
     -8.445  0.2439E-07  0.6391E-01  0.2000E-01  0.1971E-01
     -8.399  0.0000E+00  0.6383E-02  0.2000E-01  0.2000E-01
     -8.353  0.0000E+00  0.1458E-06  0.2000E-01  0.2000E-01
     -8.307  0.0000E+00  0.1285E-15  0.2000E-01  0.2000E-01
     -8.261  0.0000E+00  0.0000E+00  0.2000E-01  0.2000E-01
     -8.215  0.0000E+00  0.0000E+00  0.2000E-01  0.2000E-01
     -8.169  0.0000E+00  0.0000E+00  0.2000E-01  0.2000E-01
     -8.123  0.0000E+00  0.0000E+00  0.2000E-01  0.2000E-01
     -8.077  0.0000E+00  0.0000E+00  0.2000E-01  0.2000E-01
     -8.031  0.0000E+00  0.0000E+00  0.2000E-01  0.2000E-01
     -7.985  0.0000E+00  0.0000E+00  0.2000E-01  0.2000E-01
     -7.939  0.8091E-12  0.0000E+00  0.2000E-01  0.2000E-01
     -7.893  0.2171E-04  0.0000E+00  0.2000E-01  0.2000E-01
     -7.846  0.3177E-01  0.0000E+00  0.2146E-01  0.2000E-01
     -7.800  0.9872E-01  0.0000E+00  0.2601E-01  0.2000E-01
     -7.754  0.1435E-01  0.7165E-13  0.2667E-01  0.2000E-01
     -7.708  0.5114E-01  0.5908E-05  0.2903E-01  0.2000E-01
     -7.662  0.8913E-01  0.2889E-01  0.3314E-01  0.2133E-01
     -7.616  0.1736E-01  0.1138E+00  0.3394E-01  0.2657E-01
     -7.570  0.8165E-01  0.2196E-02  0.3770E-01  0.2668E-01
     -7.524  0.4973E-01  0.4862E-01  0.3999E-01  0.2892E-01
     -7.478  0.1972E-01  0.2353E-01  0.4090E-01  0.3000E-01
     -7.432  0.1090E+00  0.9030E-05  0.4592E-01  0.3000E-01
     -7.386  0.7717E-01  0.1465E-01  0.4948E-01  0.3067E-01
     -7.340  0.1131E-01  0.6918E-01  0.5000E-01  0.3386E-01
     -7.294  0.1913E-01  0.6007E-01  0.5088E-01  0.3663E-01
     -7.247  0.5420E-01  0.1367E-02  0.5338E-01  0.3669E-01
     -7.201  0.6386E-01  0.5734E-01  0.5632E-01  0.3933E-01
     -7.155  0.8374E-01  0.1444E-01  0.6018E-01  0.4000E-01
     -7.109  0.1122E+00  0.1768E-01  0.6535E-01  0.4081E-01
     -7.063  0.3063E-01  0.7213E-01  0.6676E-01  0.4414E-01
     -7.017  0.6681E-01  0.7375E-01  0.6984E-01  0.4754E-01
     -6.971  0.9757E-01  0.5316E-01  0.7433E-01  0.4999E-01
     -6.925  0.5051E-01  0.6309E-02  0.7666E-01  0.5028E-01
     -6.879  0.2828E-01  0.6413E-01  0.7796E-01  0.5323E-01
     -6.833  0.4412E-01  0.2833E-02  0.8000E-01  0.5336E-01
     -6.787  0.3902E-01  0.6748E-01  0.8180E-01  0.5647E-01
     -6.741  0.3651E-01  0.7595E-01  0.8348E-01  0.5997E-01
     -6.695  0.6482E-01  0.5822E-01  0.8647E-01  0.6265E-01
     -6.648  0.2066E-01  0.5686E-01  0.8742E-01  0.6527E-01
     -6.602  0.1060E+00  0.1009E+00  0.9230E-01  0.6992E-01
     -6.556  0.2240E-01  0.7465E-01  0.9333E-01  0.7336E-01
     -6.510  0.1286E-01  0.6077E-01  0.9393E-01  0.7616E-01
     -6.464  0.1285E+00  0.1697E-01  0.9985E-01  0.7695E-01
     -6.418  0.7016E-01  0.6410E-01  0.1031E+00  0.7990E-01
     -6.372  0.1033E+00  0.2185E-02  0.1078E+00  0.8000E-01
     -6.326  0.1272E+00  0.1030E-07  0.1137E+00  0.8000E-01
     -6.280  0.6795E-01  0.3099E-03  0.1168E+00  0.8001E-01
     -6.234  0.7651E-01  0.5300E-01  0.1204E+00  0.8246E-01
     -6.188  0.1086E+00  0.6298E-01  0.1254E+00  0.8536E-01
     -6.142  0.1379E+00  0.2914E-01  0.1317E+00  0.8670E-01
     -6.096  0.1347E+00  0.5924E-01  0.1379E+00  0.8943E-01
     -6.049  0.1018E+00  0.4392E-01  0.1426E+00  0.9145E-01
     -6.003  0.9205E-01  0.4071E-01  0.1469E+00  0.9333E-01
     -5.957  0.1035E+00  0.1713E-02  0.1516E+00  0.9341E-01
     -5.911  0.1072E+00  0.9526E-01  0.1566E+00  0.9780E-01
     -5.865  0.2007E+00  0.6814E-01  0.1658E+00  0.1009E+00
     -5.819  0.1609E+00  0.6982E-01  0.1732E+00  0.1042E+00
     -5.773  0.6742E-01  0.9208E-01  0.1763E+00  0.1084E+00
     -5.727  0.9916E-01  0.1250E+00  0.1809E+00  0.1142E+00
     -5.681  0.1058E+00  0.5713E-01  0.1858E+00  0.1168E+00
     -5.635  0.1572E+00  0.1079E+00  0.1930E+00  0.1218E+00
     -5.589  0.7696E-01  0.1051E+00  0.1966E+00  0.1266E+00
     -5.543  0.1277E+00  0.9252E-01  0.2024E+00  0.1309E+00
     -5.497  0.1843E+00  0.1377E+00  0.2109E+00  0.1372E+00
     -5.450  0.5812E-01  0.9783E-01  0.2136E+00  0.1417E+00
     -5.404  0.7035E-01  0.1351E+00  0.2169E+00  0.1479E+00
     -5.358  0.6995E-01  0.1064E+00  0.2201E+00  0.1529E+00
     -5.312  0.8185E-01  0.6778E-01  0.2238E+00  0.1560E+00
     -5.266  0.1101E+00  0.1291E+00  0.2289E+00  0.1619E+00
     -5.220  0.1133E+00  0.1662E+00  0.2341E+00  0.1696E+00
     -5.174  0.1104E+00  0.1455E+00  0.2392E+00  0.1763E+00
     -5.128  0.1591E+00  0.9452E-01  0.2466E+00  0.1806E+00
     -5.082  0.1380E+00  0.9591E-01  0.2529E+00  0.1851E+00
     -5.036  0.1292E+00  0.1060E+00  0.2589E+00  0.1899E+00
     -4.990  0.1565E+00  0.6379E-01  0.2661E+00  0.1929E+00
     -4.944  0.7881E-01  0.7206E-01  0.2697E+00  0.1962E+00
     -4.898  0.1169E+00  0.1620E+00  0.2751E+00  0.2037E+00
     -4.851  0.1573E+00  0.1576E+00  0.2823E+00  0.2109E+00
     -4.805  0.1577E+00  0.5615E-01  0.2896E+00  0.2135E+00
     -4.759  0.1361E+00  0.6512E-01  0.2959E+00  0.2165E+00
     -4.713  0.1488E+00  0.4575E-01  0.3027E+00  0.2186E+00
     -4.667  0.1515E+00  0.1059E+00  0.3097E+00  0.2235E+00
     -4.621  0.9626E-01  0.8963E-01  0.3142E+00  0.2276E+00
     -4.575  0.1638E+00  0.1111E+00  0.3217E+00  0.2328E+00
     -4.529  0.1378E+00  0.1865E+00  0.3281E+00  0.2413E+00
     -4.483  0.1994E+00  0.1146E+00  0.3372E+00  0.2466E+00
     -4.437  0.1528E+00  0.8891E-01  0.3443E+00  0.2507E+00
     -4.391  0.2239E+00  0.1639E+00  0.3546E+00  0.2583E+00
     -4.345  0.1588E+00  0.2069E+00  0.3619E+00  0.2678E+00
     -4.299  0.2209E+00  0.5833E-01  0.3721E+00  0.2705E+00
     -4.252  0.2110E+00  0.1201E+00  0.3818E+00  0.2760E+00
     -4.206  0.1860E+00  0.1202E+00  0.3904E+00  0.2816E+00
     -4.160  0.2628E+00  0.1496E+00  0.4025E+00  0.2885E+00
     -4.114  0.3096E+00  0.1715E+00  0.4168E+00  0.2964E+00
     -4.068  0.2445E+00  0.1554E+00  0.4280E+00  0.3035E+00
     -4.022  0.3684E+00  0.1229E+00  0.4450E+00  0.3092E+00
     -3.976  0.3458E+00  0.1367E+00  0.4609E+00  0.3155E+00
     -3.930  0.3070E+00  0.1169E+00  0.4751E+00  0.3209E+00
     -3.884  0.3103E+00  0.1996E+00  0.4894E+00  0.3301E+00
     -3.838  0.2988E+00  0.1899E+00  0.5031E+00  0.3388E+00
     -3.792  0.2060E+00  0.1681E+00  0.5126E+00  0.3466E+00
     -3.746  0.2365E+00  0.1522E+00  0.5235E+00  0.3536E+00
     -3.700  0.6788E-01  0.1840E+00  0.5267E+00  0.3621E+00
     -3.653  0.4528E-01  0.2140E+00  0.5288E+00  0.3719E+00
     -3.607  0.7617E-01  0.1843E+00  0.5323E+00  0.3804E+00
     -3.561  0.2328E-01  0.2135E+00  0.5333E+00  0.3902E+00
     -3.515  0.7179E-05  0.2197E+00  0.5333E+00  0.4004E+00
     -3.469  0.1075E-12  0.2022E+00  0.5333E+00  0.4097E+00
     -3.423  0.9204E-08  0.2954E+00  0.5333E+00  0.4233E+00
     -3.377  0.2095E-02  0.2450E+00  0.5334E+00  0.4346E+00
     -3.331  0.6398E-01  0.3007E+00  0.5364E+00  0.4484E+00
     -3.285  0.6266E-02  0.1994E+00  0.5367E+00  0.4576E+00
     -3.239  0.1388E-06  0.1857E+00  0.5367E+00  0.4662E+00
     -3.193  0.3620E-04  0.8777E-01  0.5367E+00  0.4702E+00
     -3.147  0.3521E-01  0.1740E+00  0.5383E+00  0.4782E+00
     -3.101  0.3705E-01  0.2331E+00  0.5400E+00  0.4890E+00
     -3.054  0.4541E-04  0.2319E+00  0.5400E+00  0.4997E+00
     -3.008  0.7143E-05  0.2334E+00  0.5400E+00  0.5104E+00
     -2.962  0.2324E-01  0.2447E+00  0.5411E+00  0.5217E+00
     -2.916  0.4891E-01  0.1480E+00  0.5433E+00  0.5285E+00
     -2.870  0.3504E-03  0.3533E-01  0.5433E+00  0.5302E+00
     -2.824  0.4768E-01  0.6497E-01  0.5455E+00  0.5331E+00
     -2.778  0.2452E-01  0.4912E-01  0.5467E+00  0.5354E+00
     -2.732  0.3162E-01  0.2979E-01  0.5481E+00  0.5368E+00
     -2.686  0.5427E-01  0.6444E-01  0.5506E+00  0.5398E+00
     -2.640  0.5814E-01  0.5424E-02  0.5533E+00  0.5400E+00
     -2.594  0.6354E-03  0.1733E-02  0.5533E+00  0.5401E+00
     -2.548  0.6437E-09  0.6336E-01  0.5533E+00  0.5430E+00
     -2.502  0.3705E-04  0.1997E-01  0.5533E+00  0.5439E+00
     -2.455  0.3539E-01  0.5890E-01  0.5550E+00  0.5466E+00
     -2.409  0.3687E-01  0.7912E-03  0.5567E+00  0.5467E+00
     -2.363  0.4440E-04  0.4048E-01  0.5567E+00  0.5485E+00
     -2.317  0.3093E-11  0.6342E-01  0.5567E+00  0.5515E+00
     -2.271  0.2265E-06  0.4065E-01  0.5567E+00  0.5533E+00
     -2.225  0.7522E-02  0.1742E-03  0.5570E+00  0.5533E+00
     -2.179  0.6318E-01  0.4400E-01  0.5599E+00  0.5554E+00
     -2.133  0.2199E-01  0.2822E-01  0.5609E+00  0.5567E+00
     -2.087  0.5173E-01  0.1466E-04  0.5633E+00  0.5567E+00
     -2.041  0.2678E-03  0.3925E-12  0.5633E+00  0.5567E+00
     -1.995  0.1096E-01  0.8537E-11  0.5638E+00  0.5567E+00
     -1.949  0.6044E-01  0.7544E-04  0.5666E+00  0.5567E+00
     -1.903  0.9353E-03  0.4127E-01  0.5667E+00  0.5586E+00
     -1.856  0.1483E-08  0.3138E-01  0.5667E+00  0.5600E+00
     -1.810  0.0000E+00  0.5493E-01  0.5667E+00  0.5625E+00
     -1.764  0.4130E-10  0.1702E-01  0.5667E+00  0.5633E+00
     -1.718  0.1683E-03  0.4613E-02  0.5667E+00  0.5635E+00
     -1.672  0.4799E-01  0.6473E-01  0.5689E+00  0.5665E+00
     -1.626  0.2418E-01  0.3000E-02  0.5700E+00  0.5667E+00
     -1.580  0.8235E-05  0.2161E-07  0.5700E+00  0.5667E+00
     -1.534  0.1376E-12  0.0000E+00  0.5700E+00  0.5667E+00
     -1.488  0.0000E+00  0.1375E-08  0.5700E+00  0.5667E+00
     -1.442  0.0000E+00  0.9035E-03  0.5700E+00  0.5667E+00
     -1.396  0.0000E+00  0.6025E-01  0.5700E+00  0.5695E+00
     -1.350  0.2321E-08  0.1119E-01  0.5700E+00  0.5700E+00
     -1.304  0.1145E-02  0.6930E-06  0.5701E+00  0.5700E+00
     -1.257  0.6153E-01  0.1799E-14  0.5729E+00  0.5700E+00
     -1.211  0.9666E-02  0.6158E-10  0.5733E+00  0.5700E+00
     -1.165  0.8749E-06  0.2054E-03  0.5733E+00  0.5700E+00
     -1.119  0.9404E-02  0.4962E-01  0.5738E+00  0.5723E+00
     -1.073  0.6658E-01  0.2251E-01  0.5768E+00  0.5733E+00
     -1.027  0.6585E-01  0.6412E-05  0.5799E+00  0.5733E+00
     -0.981  0.2843E-02  0.3298E-02  0.5800E+00  0.5735E+00
     -0.935  0.1133E-02  0.6521E-01  0.5801E+00  0.5765E+00
     -0.889  0.6148E-01  0.5868E-01  0.5829E+00  0.5792E+00
     -0.843  0.2317E-01  0.1750E-01  0.5840E+00  0.5800E+00
     -0.797  0.5829E-01  0.4396E-05  0.5866E+00  0.5800E+00
     -0.751  0.3576E-01  0.1497E-01  0.5883E+00  0.5807E+00
     -0.705  0.3717E-01  0.5685E-01  0.5900E+00  0.5833E+00
     -0.658  0.2545E-01  0.2267E-01  0.5912E+00  0.5844E+00
     -0.612  0.5530E-01  0.5005E-01  0.5937E+00  0.5867E+00
     -0.566  0.6297E-01  0.3992E-01  0.5966E+00  0.5885E+00
     -0.520  0.5633E-01  0.3275E-01  0.5992E+00  0.5900E+00
     -0.474  0.7493E-01  0.4955E-01  0.6027E+00  0.5923E+00
     -0.428  0.1798E-01  0.7143E-01  0.6035E+00  0.5956E+00
     -0.382  0.6487E-01  0.2527E-01  0.6065E+00  0.5967E+00
     -0.336  0.2356E-01  0.6346E-01  0.6076E+00  0.5997E+00
     -0.290  0.5285E-01  0.4853E-01  0.6100E+00  0.6019E+00
     -0.244  0.5560E-01  0.9027E-01  0.6126E+00  0.6061E+00
     -0.198  0.2667E-01  0.1313E-01  0.6138E+00  0.6067E+00
     -0.152  0.6120E-01  0.4289E-01  0.6166E+00  0.6086E+00
     -0.106  0.1074E-02  0.2964E-01  0.6167E+00  0.6100E+00
     -0.059  0.2012E-08  0.5248E-01  0.6167E+00  0.6124E+00
     -0.013  0.0000E+00  0.5201E-01  0.6167E+00  0.6148E+00
      0.033  0.0000E+00  0.3986E-01  0.6167E+00  0.6167E+00
      0.079  0.0000E+00  0.6369E-04  0.6167E+00  0.6167E+00
      0.125  0.0000E+00  0.6160E-11  0.6167E+00  0.6167E+00
      0.171  0.0000E+00  0.0000E+00  0.6167E+00  0.6167E+00
      0.217  0.0000E+00  0.0000E+00  0.6167E+00  0.6167E+00
      0.263  0.0000E+00  0.0000E+00  0.6167E+00  0.6167E+00
      0.309  0.0000E+00  0.0000E+00  0.6167E+00  0.6167E+00
      0.355  0.0000E+00  0.0000E+00  0.6167E+00  0.6167E+00
      0.401  0.0000E+00  0.0000E+00  0.6167E+00  0.6167E+00
      0.447  0.0000E+00  0.0000E+00  0.6167E+00  0.6167E+00
      0.493  0.0000E+00  0.0000E+00  0.6167E+00  0.6167E+00
      0.540  0.0000E+00  0.0000E+00  0.6167E+00  0.6167E+00
      0.586  0.0000E+00  0.0000E+00  0.6167E+00  0.6167E+00
      0.632  0.0000E+00  0.0000E+00  0.6167E+00  0.6167E+00
      0.678  0.3349E-11  0.0000E+00  0.6167E+00  0.6167E+00
      0.724  0.4629E-04  0.0000E+00  0.6167E+00  0.6167E+00
      0.770  0.3721E-01  0.3253E-15  0.6184E+00  0.6167E+00
      0.816  0.3505E-01  0.2514E-06  0.6200E+00  0.6167E+00
      0.862  0.3550E-04  0.7815E-02  0.6200E+00  0.6170E+00
      0.908  0.3112E-04  0.6296E-01  0.6200E+00  0.6199E+00
      0.954  0.3654E-01  0.1565E-02  0.6217E+00  0.6200E+00
      1.000  0.1029E+00  0.1659E-06  0.6264E+00  0.6200E+00
      1.046  0.5334E-01  0.7446E-02  0.6289E+00  0.6203E+00
      1.092  0.8426E-01  0.1248E+00  0.6328E+00  0.6261E+00
      1.139  0.8228E-01  0.7572E-01  0.6366E+00  0.6296E+00
      1.185  0.2020E-01  0.1838E-01  0.6375E+00  0.6304E+00
      1.231  0.5414E-01  0.1260E+00  0.6400E+00  0.6362E+00
      1.277  0.2886E-02  0.2255E-01  0.6401E+00  0.6373E+00
      1.323  0.6568E-01  0.5883E-01  0.6431E+00  0.6400E+00
      1.369  0.6728E-01  0.5531E-01  0.6462E+00  0.6425E+00
      1.415  0.2855E-01  0.1955E-01  0.6476E+00  0.6434E+00
      1.461  0.1215E+00  0.6461E-01  0.6532E+00  0.6464E+00
      1.507  0.2897E-01  0.1013E+00  0.6545E+00  0.6511E+00
      1.553  0.1169E+00  0.9933E-01  0.6599E+00  0.6557E+00
      1.599  0.2675E-02  0.9285E-01  0.6600E+00  0.6599E+00
      1.645  0.1252E-07  0.1399E-02  0.6600E+00  0.6600E+00
      1.691  0.0000E+00  0.3525E-08  0.6600E+00  0.6600E+00
      1.738  0.0000E+00  0.0000E+00  0.6600E+00  0.6600E+00
      1.784  0.0000E+00  0.0000E+00  0.6600E+00  0.6600E+00
      1.830  0.0000E+00  0.0000E+00  0.6600E+00  0.6600E+00
      1.876  0.0000E+00  0.0000E+00  0.6600E+00  0.6600E+00
      1.922  0.0000E+00  0.0000E+00  0.6600E+00  0.6600E+00
      1.968  0.0000E+00  0.0000E+00  0.6600E+00  0.6600E+00
      2.014  0.0000E+00  0.0000E+00  0.6600E+00  0.6600E+00
      2.060  0.0000E+00  0.0000E+00  0.6600E+00  0.6600E+00
      2.106  0.0000E+00  0.0000E+00  0.6600E+00  0.6600E+00
      2.152  0.0000E+00  0.0000E+00  0.6600E+00  0.6600E+00
      2.198  0.0000E+00  0.0000E+00  0.6600E+00  0.6600E+00
