       N       E                     dE             d eps       ncg     rms          rms(c)
DAV:   1     0.151110955128E+04    0.15111E+04   -0.88361E+04   792   0.927E+02
DAV:   2    -0.693613939725E+02   -0.15805E+04   -0.15252E+04   834   0.284E+02
DAV:   3    -0.152569397828E+03   -0.83208E+02   -0.79541E+02   852   0.798E+01
DAV:   4    -0.154461642028E+03   -0.18922E+01   -0.18705E+01   900   0.144E+01
DAV:   5    -0.154505950179E+03   -0.44308E-01   -0.44272E-01   924   0.150E+00    0.461E+01
DAV:   6    -0.168959047066E+03   -0.14453E+02   -0.21520E+02   840   0.127E+02    0.874E+01
DAV:   7    -0.153929631473E+03    0.15029E+02   -0.13277E+02   852   0.141E+02    0.588E+01
DAV:   8    -0.150179918637E+03    0.37497E+01   -0.79465E+01   852   0.102E+02    0.694E+01
DAV:   9    -0.145622118884E+03    0.45578E+01   -0.57574E+01   894   0.814E+01    0.722E+01
DAV:  10    -0.138573117247E+03    0.70490E+01   -0.44160E+01   876   0.544E+01    0.513E+01
DAV:  11    -0.142679233577E+03   -0.41061E+01   -0.40015E+01   876   0.670E+01    0.657E+01
DAV:  12    -0.136027995465E+03    0.66512E+01   -0.68384E+01   876   0.496E+01    0.451E+01
DAV:  13    -0.131748825287E+03    0.42792E+01   -0.19603E+01   840   0.493E+01    0.372E+01
DAV:  14    -0.129375764529E+03    0.23731E+01   -0.11294E+01   888   0.360E+01    0.314E+01
DAV:  15    -0.128556403716E+03    0.81936E+00   -0.79940E+00   912   0.263E+01    0.262E+01
DAV:  16    -0.128861684169E+03   -0.30528E+00   -0.60787E+00   900   0.235E+01    0.245E+01
DAV:  17    -0.128831228829E+03    0.30455E-01   -0.43096E+00   834   0.197E+01    0.195E+01
DAV:  18    -0.128584853219E+03    0.24638E+00   -0.29619E+00   834   0.158E+01    0.117E+01
DAV:  19    -0.129117661177E+03   -0.53281E+00   -0.16231E+00  1068   0.111E+01    0.133E+01
DAV:  20    -0.129631915708E+03   -0.51425E+00   -0.88236E-01   828   0.877E+00    0.118E+01
DAV:  21    -0.129730427379E+03   -0.98512E-01   -0.44093E-01   852   0.684E+00    0.951E+00
DAV:  22    -0.130349969212E+03   -0.61954E+00   -0.45388E-01   852   0.699E+00    0.115E+01
DAV:  23    -0.130783557935E+03   -0.43359E+00   -0.79846E-01   888   0.742E+00    0.105E+01
DAV:  24    -0.130964070454E+03   -0.18051E+00   -0.29619E-01   864   0.494E+00    0.838E+00
DAV:  25    -0.131526720161E+03   -0.56265E+00   -0.40080E-01   876   0.599E+00    0.955E+00
DAV:  26    -0.131977420605E+03   -0.45070E+00   -0.48597E-01   864   0.754E+00    0.788E+00
DAV:  27    -0.132781226025E+03   -0.80381E+00   -0.86853E-01   960   0.797E+00    0.867E+00
DAV:  28    -0.132952466445E+03   -0.17124E+00   -0.41431E-01   864   0.637E+00    0.637E+00
DAV:  29    -0.133246971294E+03   -0.29450E+00   -0.22038E-01   846   0.493E+00    0.568E+00
DAV:  30    -0.133360527218E+03   -0.11356E+00   -0.12190E-01   864   0.374E+00    0.278E+00
DAV:  31    -0.133663901656E+03   -0.30337E+00   -0.11492E-01   900   0.328E+00    0.375E+00
DAV:  32    -0.133813843692E+03   -0.14994E+00   -0.77858E-02   840   0.284E+00    0.224E+00
DAV:  33    -0.134045583461E+03   -0.23174E+00   -0.67406E-02   876   0.218E+00    0.289E+00
DAV:  34    -0.134320710911E+03   -0.27513E+00   -0.87296E-02   828   0.230E+00    0.164E+00
DAV:  35    -0.134488649045E+03   -0.16794E+00   -0.51004E-02   828   0.224E+00    0.180E+00
DAV:  36    -0.134806186875E+03   -0.31754E+00   -0.71334E-02   840   0.183E+00    0.107E+00
DAV:  37    -0.134896974595E+03   -0.90788E-01   -0.22019E-02   876   0.139E+00    0.937E-01
DAV:  38    -0.135096806052E+03   -0.19983E+00   -0.32207E-02   828   0.111E+00    0.921E-01
DAV:  39    -0.135155258043E+03   -0.58452E-01   -0.10418E-02   876   0.101E+00    0.662E-01
DAV:  40    -0.135328147875E+03   -0.17289E+00   -0.21806E-02   936   0.759E-01    0.618E-01
DAV:  41    -0.135368714105E+03   -0.40566E-01   -0.58252E-03   900   0.735E-01    0.430E-01
DAV:  42    -0.135477043059E+03   -0.10833E+00   -0.12495E-02   966   0.590E-01    0.574E-01
DAV:  43    -0.135503354913E+03   -0.26312E-01   -0.37127E-03   912   0.596E-01    0.274E-01
DAV:  44    -0.135538775717E+03   -0.35421E-01   -0.46415E-03  1032   0.444E-01    0.389E-01
DAV:  45    -0.135557433189E+03   -0.18657E-01   -0.27867E-03   912   0.449E-01    0.229E-01
DAV:  46    -0.135575106788E+03   -0.17674E-01   -0.30089E-03  1008   0.320E-01    0.230E-01
DAV:  47    -0.135579548184E+03   -0.44414E-02   -0.91727E-04   924   0.291E-01    0.126E-01
DAV:  48    -0.135583091819E+03   -0.35436E-02   -0.58590E-04   756   0.177E-01    0.152E-01
DAV:  49    -0.135584365142E+03   -0.12733E-02   -0.24067E-04   600   0.166E-01    0.965E-02
DAV:  50    -0.135586268709E+03   -0.19036E-02   -0.26679E-04   624   0.119E-01    0.951E-02
DAV:  51    -0.135586843031E+03   -0.57432E-03   -0.12085E-04   528   0.110E-01    0.451E-02
DAV:  52    -0.135587867562E+03   -0.10245E-02   -0.13457E-04   540   0.794E-02    0.702E-02
DAV:  53    -0.135588237562E+03   -0.37000E-03   -0.86203E-05   540   0.835E-02    0.317E-02
DAV:  54    -0.135588909306E+03   -0.67174E-03   -0.84594E-05   504   0.490E-02    0.438E-02
DAV:  55    -0.135589178419E+03   -0.26911E-03   -0.47780E-05   552   0.576E-02    0.226E-02
DAV:  56    -0.135589775451E+03   -0.59703E-03   -0.33307E-05   498   0.325E-02    0.319E-02
DAV:  57    -0.135589923488E+03   -0.14804E-03   -0.21271E-05   504   0.375E-02    0.246E-02
DAV:  58    -0.135590131938E+03   -0.20845E-03   -0.18292E-05   492   0.239E-02    0.152E-02
DAV:  59    -0.135590475085E+03   -0.34315E-03   -0.16746E-05   510   0.132E-02    0.729E-03
DAV:  60    -0.135590669478E+03   -0.19439E-03   -0.14672E-05   528   0.699E-03    0.740E-03
DAV:  61    -0.135590686095E+03   -0.16617E-04   -0.47806E-06   504   0.968E-03
   1 F= -.13559069E+03 E0= -.13558782E+03  d E =-.135591E+03  mag=    19.9978
       N       E                     dE             d eps       ncg     rms          rms(c)
DAV:   1    -0.135652912615E+03   -0.62243E-01   -0.50642E+00   804   0.491E+00    0.638E-01
DAV:   2    -0.135681867982E+03   -0.28955E-01   -0.12414E-01  1128   0.285E+00    0.315E+00
DAV:   3    -0.135659437560E+03    0.22430E-01   -0.83028E-02   846   0.310E+00    0.124E+00
DAV:   4    -0.135665301778E+03   -0.58642E-02   -0.27800E-02  1056   0.162E+00    0.161E+00
DAV:   5    -0.135661168468E+03    0.41333E-02   -0.18104E-02   900   0.141E+00    0.930E-01
DAV:   6    -0.135659964331E+03    0.12041E-02   -0.49096E-03   876   0.894E-01    0.410E-01
DAV:   7    -0.135661133401E+03   -0.11691E-02   -0.33942E-03   972   0.745E-01    0.731E-01
DAV:   8    -0.135660184887E+03    0.94851E-03   -0.37615E-03   876   0.715E-01    0.573E-01
DAV:   9    -0.135659828701E+03    0.35619E-03   -0.23212E-03   876   0.494E-01    0.359E-01
DAV:  10    -0.135660219954E+03   -0.39125E-03   -0.17691E-03   840   0.449E-01    0.463E-01
DAV:  11    -0.135659886015E+03    0.33394E-03   -0.14299E-03   816   0.397E-01    0.246E-01
DAV:  12    -0.135659901269E+03   -0.15253E-04   -0.39386E-04   504   0.195E-01
   2 F= -.13565990E+03 E0= -.13565730E+03  d E =-.692152E-01  mag=    19.9995
       N       E                     dE             d eps       ncg     rms          rms(c)
DAV:   1    -0.135711659616E+03   -0.51774E-01   -0.45446E+01   792   0.148E+01    0.197E+00
DAV:   2    -0.135994702090E+03   -0.28304E+00   -0.11345E+00  1128   0.875E+00    0.105E+01
DAV:   3    -0.135779597334E+03    0.21510E+00   -0.10987E+00   840   0.931E+00    0.395E+00
DAV:   4    -0.135824077537E+03   -0.44480E-01   -0.27134E-01  1056   0.515E+00    0.491E+00
DAV:   5    -0.135787526677E+03    0.36551E-01   -0.15369E-01   870   0.413E+00    0.266E+00
DAV:   6    -0.135777171960E+03    0.10355E-01   -0.45335E-02   858   0.292E+00    0.133E+00
DAV:   7    -0.135787072296E+03   -0.99003E-02   -0.35725E-02   984   0.232E+00    0.223E+00
DAV:   8    -0.135778554962E+03    0.85173E-02   -0.34137E-02   906   0.219E+00    0.162E+00
DAV:   9    -0.135774908355E+03    0.36466E-02   -0.22713E-02   912   0.159E+00    0.100E+00
DAV:  10    -0.135778738852E+03   -0.38305E-02   -0.15717E-02   990   0.140E+00    0.136E+00
DAV:  11    -0.135775330250E+03    0.34086E-02   -0.10330E-02   876   0.122E+00    0.697E-01
DAV:  12    -0.135774953336E+03    0.37691E-03   -0.31779E-03   924   0.692E-01    0.348E-01
DAV:  13    -0.135776021289E+03   -0.10680E-02   -0.26548E-03   942   0.536E-01    0.596E-01
DAV:  14    -0.135776016765E+03    0.45239E-05   -0.18722E-03   852   0.476E-01    0.297E-01
DAV:  15    -0.135776281074E+03   -0.26431E-03   -0.59630E-04   672   0.299E-01    0.112E-01
DAV:  16    -0.135776841061E+03   -0.55999E-03   -0.34182E-04   528   0.218E-01    0.209E-01
DAV:  17    -0.135777284632E+03   -0.44357E-03   -0.31754E-04   552   0.187E-01    0.681E-02
DAV:  18    -0.135777558530E+03   -0.27390E-03   -0.96553E-05   528   0.112E-01    0.872E-02
DAV:  19    -0.135778149392E+03   -0.59086E-03   -0.10786E-04   516   0.103E-01    0.792E-02
DAV:  20    -0.135778351934E+03   -0.20254E-03   -0.61655E-05   528   0.854E-02    0.355E-02
DAV:  21    -0.135778651745E+03   -0.29981E-03   -0.45510E-05   516   0.595E-02    0.528E-02
DAV:  22    -0.135778901186E+03   -0.24944E-03   -0.38709E-05   516   0.565E-02    0.213E-02
DAV:  23    -0.135779026618E+03   -0.12543E-03   -0.19788E-05   504   0.340E-02    0.256E-02
DAV:  24    -0.135779284648E+03   -0.25803E-03   -0.21206E-05   528   0.294E-02    0.192E-02
DAV:  25    -0.135779371692E+03   -0.87045E-04   -0.11316E-05   504   0.232E-02
   3 F= -.13577937E+03 E0= -.13577743E+03  d E =-.188686E+00  mag=    20.0000
       N       E                     dE             d eps       ncg     rms          rms(c)
DAV:   1    -0.135822035415E+03   -0.42751E-01   -0.80396E+00   792   0.628E+00    0.892E-01
DAV:   2    -0.135898173057E+03   -0.76138E-01   -0.26364E-01  1050   0.467E+00    0.541E+00
DAV:   3    -0.135829868064E+03    0.68305E-01   -0.22155E-01   888   0.456E+00    0.177E+00
DAV:   4    -0.135840851240E+03   -0.10983E-01   -0.48703E-02  1068   0.246E+00    0.173E+00
DAV:   5    -0.135838140358E+03    0.27109E-02   -0.22835E-02   888   0.178E+00    0.136E+00
DAV:   6    -0.135834019562E+03    0.41208E-02   -0.98727E-03   846   0.129E+00    0.517E-01
DAV:   7    -0.135836196811E+03   -0.21772E-02   -0.76037E-03   984   0.942E-01    0.961E-01
DAV:   8    -0.135836055847E+03    0.14096E-03   -0.99022E-03   882   0.957E-01    0.980E-01
DAV:   9    -0.135834077052E+03    0.19788E-02   -0.49915E-03   852   0.824E-01    0.402E-01
DAV:  10    -0.135834901775E+03   -0.82472E-03   -0.22718E-03   936   0.652E-01    0.501E-01
DAV:  11    -0.135834668213E+03    0.23356E-03   -0.14617E-03   882   0.530E-01    0.301E-01
DAV:  12    -0.135834551956E+03    0.11626E-03   -0.62408E-04   732   0.321E-01    0.124E-01
DAV:  13    -0.135834759100E+03   -0.20714E-03   -0.31549E-04   522   0.191E-01    0.203E-01
DAV:  14    -0.135834820040E+03   -0.60940E-04   -0.27340E-04   516   0.175E-01
   4 F= -.13583482E+03 E0= -.13583325E+03  d E =-.554483E-01  mag=    20.0001
       N       E                     dE             d eps       ncg     rms          rms(c)
DAV:   1    -0.135838831618E+03   -0.40725E-02   -0.67376E+00   792   0.575E+00    0.823E-01
DAV:   2    -0.135905060186E+03   -0.66229E-01   -0.22365E-01  1056   0.438E+00    0.499E+00
DAV:   3    -0.135845053718E+03    0.60006E-01   -0.17752E-01   876   0.420E+00    0.161E+00
DAV:   4    -0.135854459087E+03   -0.94054E-02   -0.41697E-02  1032   0.226E+00    0.160E+00
DAV:   5    -0.135852603403E+03    0.18557E-02   -0.19948E-02   888   0.162E+00    0.132E+00
DAV:   6    -0.135848888322E+03    0.37151E-02   -0.96419E-03   858   0.119E+00    0.539E-01
DAV:   7    -0.135850379899E+03   -0.14916E-02   -0.67429E-03   984   0.846E-01    0.818E-01
DAV:   8    -0.135850814285E+03   -0.43439E-03   -0.73186E-03   912   0.892E-01    0.898E-01
DAV:   9    -0.135849023932E+03    0.17904E-02   -0.34775E-03   852   0.787E-01    0.345E-01
DAV:  10    -0.135849756074E+03   -0.73214E-03   -0.16224E-03   888   0.603E-01    0.483E-01
DAV:  11    -0.135849577781E+03    0.17829E-03   -0.14554E-03   870   0.507E-01    0.315E-01
DAV:  12    -0.135849444287E+03    0.13349E-03   -0.73433E-04   678   0.321E-01    0.131E-01
DAV:  13    -0.135849587834E+03   -0.14355E-03   -0.26516E-04   516   0.170E-01    0.165E-01
DAV:  14    -0.135849723051E+03   -0.13522E-03   -0.19380E-04   540   0.153E-01    0.110E-01
DAV:  15    -0.135849765268E+03   -0.42218E-04   -0.75558E-05   504   0.104E-01
   5 F= -.13584977E+03 E0= -.13584843E+03  d E =-.703936E-01  mag=    20.0005
       N       E                     dE             d eps       ncg     rms          rms(c)
DAV:   1    -0.135865446848E+03   -0.15724E-01   -0.13489E+01   792   0.809E+00    0.889E-01
DAV:   2    -0.135917354093E+03   -0.51907E-01   -0.21921E-01  1104   0.408E+00    0.361E+00
DAV:   3    -0.135881905561E+03    0.35449E-01   -0.10516E-01   834   0.426E+00    0.162E+00
DAV:   4    -0.135895450694E+03   -0.13545E-01   -0.57739E-02  1056   0.247E+00    0.249E+00
DAV:   5    -0.135883691252E+03    0.11759E-01   -0.37192E-02   864   0.200E+00    0.120E+00
DAV:   6    -0.135882362834E+03    0.13284E-02   -0.11172E-02   906   0.116E+00    0.484E-01
DAV:   7    -0.135884074656E+03   -0.17118E-02   -0.54789E-03  1008   0.853E-01    0.775E-01
DAV:   8    -0.135882839914E+03    0.12347E-02   -0.44370E-03   900   0.797E-01    0.454E-01
DAV:   9    -0.135882900793E+03   -0.60879E-04   -0.21175E-03   888   0.612E-01    0.391E-01
DAV:  10    -0.135883579873E+03   -0.67908E-03   -0.30019E-03   882   0.596E-01    0.625E-01
DAV:  11    -0.135882771323E+03    0.80855E-03   -0.24349E-03   852   0.532E-01    0.297E-01
DAV:  12    -0.135882817262E+03   -0.45939E-04   -0.46687E-04   540   0.263E-01
   6 F= -.13588282E+03 E0= -.13588128E+03  d E =-.330520E-01  mag=    20.0015
       N       E                     dE             d eps       ncg     rms          rms(c)
DAV:   1    -0.135872481916E+03    0.10289E-01   -0.13776E+01   792   0.817E+00    0.925E-01
DAV:   2    -0.135934056386E+03   -0.61574E-01   -0.23926E-01  1158   0.445E+00    0.405E+00
DAV:   3    -0.135888051615E+03    0.46005E-01   -0.12714E-01   828   0.459E+00    0.173E+00
DAV:   4    -0.135900965750E+03   -0.12914E-01   -0.67060E-02  1080   0.247E+00    0.241E+00
DAV:   5    -0.135891602531E+03    0.93632E-02   -0.36936E-02   852   0.203E+00    0.131E+00
DAV:   6    -0.135888972108E+03    0.26304E-02   -0.11882E-02   852   0.128E+00    0.464E-01
DAV:   7    -0.135891177975E+03   -0.22059E-02   -0.54947E-03   960   0.874E-01    0.897E-01
DAV:   8    -0.135890296089E+03    0.88189E-03   -0.62545E-03   906   0.857E-01    0.734E-01
DAV:   9    -0.135889480238E+03    0.81585E-03   -0.47762E-03   846   0.700E-01    0.413E-01
DAV:  10    -0.135890185188E+03   -0.70495E-03   -0.23116E-03   918   0.601E-01    0.511E-01
DAV:  11    -0.135889764914E+03    0.42027E-03   -0.13888E-03   864   0.519E-01    0.298E-01
DAV:  12    -0.135889694362E+03    0.70552E-04   -0.46770E-04   624   0.298E-01
   7 F= -.13588969E+03 E0= -.13588786E+03  d E =-.399291E-01  mag=    20.0035
       N       E                     dE             d eps       ncg     rms          rms(c)
DAV:   1    -0.135889835046E+03   -0.70132E-04   -0.66306E-01   810   0.180E+00    0.250E-01
DAV:   2    -0.135898264268E+03   -0.84292E-02   -0.19261E-02  1056   0.157E+00    0.176E+00
DAV:   3    -0.135889967005E+03    0.82973E-02   -0.15621E-02   852   0.151E+00    0.507E-01
DAV:   4    -0.135891044705E+03   -0.10777E-02   -0.39020E-03  1068   0.593E-01    0.365E-01
DAV:   5    -0.135891388780E+03   -0.34407E-03   -0.19187E-03   864   0.463E-01    0.420E-01
DAV:   6    -0.135891054561E+03    0.33422E-03   -0.78741E-04   840   0.364E-01    0.136E-01
DAV:   7    -0.135891159067E+03   -0.10451E-03   -0.20130E-04   516   0.170E-01    0.117E-01
DAV:   8    -0.135891326947E+03   -0.16788E-03   -0.33637E-04   528   0.176E-01    0.208E-01
DAV:   9    -0.135891400494E+03   -0.73547E-04   -0.27016E-04   528   0.174E-01
   8 F= -.13589140E+03 E0= -.13588965E+03  d E =-.416352E-01  mag=    20.0033
       N       E                     dE             d eps       ncg     rms          rms(c)
DAV:   1    -0.135896246554E+03   -0.49196E-02   -0.74690E+00   792   0.613E+00    0.727E-01
DAV:   2    -0.135940484172E+03   -0.44238E-01   -0.14396E-01  1056   0.372E+00    0.365E+00
DAV:   3    -0.135901299222E+03    0.39185E-01   -0.94192E-02   840   0.374E+00    0.824E-01
DAV:   4    -0.135912150727E+03   -0.10852E-01   -0.27297E-02   972   0.177E+00    0.155E+00
DAV:   5    -0.135906465250E+03    0.56855E-02   -0.16138E-02   852   0.143E+00    0.722E-01
DAV:   6    -0.135906448168E+03    0.17081E-04   -0.39844E-03   876   0.657E-01    0.348E-01
DAV:   7    -0.135907203890E+03   -0.75572E-03   -0.27393E-03   888   0.581E-01    0.553E-01
DAV:   8    -0.135906767653E+03    0.43624E-03   -0.19806E-03   864   0.556E-01    0.388E-01
DAV:   9    -0.135906854155E+03   -0.86502E-04   -0.13915E-03   840   0.504E-01    0.389E-01
DAV:  10    -0.135907582659E+03   -0.72850E-03   -0.26504E-03   852   0.578E-01    0.677E-01
DAV:  11    -0.135906450679E+03    0.11320E-02   -0.21578E-03   834   0.493E-01    0.207E-01
DAV:  12    -0.135906669083E+03   -0.21840E-03   -0.31167E-04   510   0.235E-01    0.148E-01
DAV:  13    -0.135906735034E+03   -0.65950E-04   -0.18606E-04   492   0.177E-01
   9 F= -.13590674E+03 E0= -.13590482E+03  d E =-.153345E-01  mag=    20.0040
       N       E                     dE             d eps       ncg     rms          rms(c)
DAV:   1    -0.135906508300E+03    0.16078E-03   -0.77696E-01   804   0.198E+00    0.257E-01
DAV:   2    -0.135913725185E+03   -0.72169E-02   -0.22467E-02  1002   0.146E+00    0.158E+00
DAV:   3    -0.135906452594E+03    0.72726E-02   -0.18347E-02   852   0.144E+00    0.484E-01
DAV:   4    -0.135907984905E+03   -0.15323E-02   -0.46941E-03   984   0.651E-01    0.556E-01
DAV:   5    -0.135907769423E+03    0.21548E-03   -0.24192E-03   840   0.495E-01    0.363E-01
DAV:   6    -0.135907556377E+03    0.21305E-03   -0.91467E-04   822   0.340E-01    0.127E-01
DAV:   7    -0.135907645787E+03   -0.89410E-04   -0.22290E-04   474   0.172E-01
  10 F= -.13590765E+03 E0= -.13590568E+03  d E =-.162453E-01  mag=    20.0042
       N       E                     dE             d eps       ncg     rms          rms(c)
DAV:   1    -0.135911554714E+03   -0.39983E-02   -0.36460E+00   792   0.426E+00    0.543E-01
DAV:   2    -0.135940491627E+03   -0.28937E-01   -0.85592E-02  1050   0.284E+00    0.331E+00
DAV:   3    -0.135913299071E+03    0.27193E-01   -0.73815E-02   840   0.292E+00    0.112E+00
DAV:   4    -0.135918084195E+03   -0.47851E-02   -0.18912E-02  1044   0.142E+00    0.107E+00
DAV:   5    -0.135916640953E+03    0.14432E-02   -0.77413E-03   852   0.990E-01    0.570E-01
DAV:   6    -0.135916158917E+03    0.48204E-03   -0.23446E-03   846   0.598E-01    0.281E-01
DAV:   7    -0.135916583044E+03   -0.42413E-03   -0.17635E-03   828   0.430E-01    0.463E-01
DAV:   8    -0.135916541098E+03    0.41947E-04   -0.21014E-03   846   0.451E-01    0.409E-01
DAV:   9    -0.135916312375E+03    0.22872E-03   -0.95363E-04   804   0.387E-01    0.219E-01
DAV:  10    -0.135916543871E+03   -0.23150E-03   -0.73977E-04   684   0.337E-01    0.332E-01
DAV:  11    -0.135916366954E+03    0.17692E-03   -0.70504E-04   522   0.308E-01    0.204E-01
DAV:  12    -0.135916336059E+03    0.30894E-04   -0.24718E-04   510   0.190E-01
  11 F= -.13591634E+03 E0= -.13591438E+03  d E =-.869027E-02  mag=    20.0025
       N       E                     dE             d eps       ncg     rms          rms(c)
DAV:   1    -0.135914806519E+03    0.15604E-02   -0.30779E+00   792   0.391E+00    0.517E-01
DAV:   2    -0.135941742357E+03   -0.26936E-01   -0.71229E-02  1044   0.283E+00    0.311E+00
DAV:   3    -0.135915594477E+03    0.26148E-01   -0.55415E-02   852   0.281E+00    0.805E-01
DAV:   4    -0.135921235904E+03   -0.56414E-02   -0.18207E-02  1104   0.133E+00    0.121E+00
DAV:   5    -0.135919157540E+03    0.20784E-02   -0.10093E-02   852   0.102E+00    0.680E-01
DAV:   6    -0.135918457639E+03    0.69990E-03   -0.29170E-03   834   0.640E-01    0.192E-01
DAV:   7    -0.135919049002E+03   -0.59136E-03   -0.15941E-03   948   0.400E-01    0.418E-01
DAV:   8    -0.135918959011E+03    0.89991E-04   -0.19760E-03   834   0.423E-01    0.410E-01
DAV:   9    -0.135918739308E+03    0.21970E-03   -0.10113E-03   708   0.337E-01    0.224E-01
DAV:  10    -0.135918939916E+03   -0.20061E-03   -0.60722E-04   654   0.313E-01    0.284E-01
DAV:  11    -0.135918813417E+03    0.12650E-03   -0.48523E-04   516   0.290E-01    0.180E-01
DAV:  12    -0.135918782177E+03    0.31240E-04   -0.20812E-04   492   0.170E-01
  12 F= -.13591878E+03 E0= -.13591683E+03  d E =-.111364E-01  mag=    20.0013
       N       E                     dE             d eps       ncg     rms          rms(c)
DAV:   1    -0.135924031253E+03   -0.52178E-02   -0.18180E+00   792   0.301E+00    0.406E-01
DAV:   2    -0.135940259703E+03   -0.16228E-01   -0.44885E-02  1086   0.226E+00    0.235E+00
DAV:   3    -0.135924396729E+03    0.15863E-01   -0.30147E-02   852   0.218E+00    0.616E-01
DAV:   4    -0.135927846739E+03   -0.34500E-02   -0.10682E-02  1056   0.106E+00    0.972E-01
DAV:   5    -0.135926760706E+03    0.10860E-02   -0.71519E-03   840   0.818E-01    0.647E-01
DAV:   6    -0.135926060047E+03    0.70066E-03   -0.24668E-03   846   0.562E-01    0.202E-01
DAV:   7    -0.135926366495E+03   -0.30645E-03   -0.87879E-04   750   0.319E-01    0.292E-01
DAV:   8    -0.135926506455E+03   -0.13996E-03   -0.11061E-03   732   0.340E-01    0.353E-01
DAV:   9    -0.135926265327E+03    0.24113E-03   -0.65252E-04   558   0.309E-01    0.186E-01
DAV:  10    -0.135926359802E+03   -0.94475E-04   -0.30618E-04   516   0.236E-01
  13 F= -.13592636E+03 E0= -.13592451E+03  d E =-.757762E-02  mag=    20.0009
       N       E                     dE             d eps       ncg     rms          rms(c)
DAV:   1    -0.135919194918E+03    0.70704E-02   -0.16352E+01   792   0.904E+00    0.120E+00
DAV:   2    -0.136054385014E+03   -0.13519E+00   -0.38963E-01  1080   0.642E+00    0.688E+00
DAV:   3    -0.135933612587E+03    0.12077E+00   -0.26025E-01   840   0.619E+00    0.237E+00
DAV:   4    -0.135949290346E+03   -0.15678E-01   -0.94160E-02  1080   0.320E+00    0.252E+00
DAV:   5    -0.135947566851E+03    0.17235E-02   -0.59661E-02   876   0.243E+00    0.203E+00
DAV:   6    -0.135939081481E+03    0.84854E-02   -0.22809E-02   870   0.181E+00    0.731E-01
DAV:   7    -0.135940287201E+03   -0.12057E-02   -0.84483E-03   990   0.945E-01    0.735E-01
DAV:   8    -0.135942333829E+03   -0.20466E-02   -0.10567E-02   894   0.991E-01    0.114E+00
DAV:   9    -0.135939527502E+03    0.28063E-02   -0.72009E-03   858   0.976E-01    0.547E-01
DAV:  10    -0.135940181898E+03   -0.65440E-03   -0.28053E-03   876   0.699E-01    0.549E-01
DAV:  11    -0.135940284138E+03   -0.10224E-03   -0.28934E-03   912   0.646E-01    0.527E-01
DAV:  12    -0.135939734352E+03    0.54979E-03   -0.13997E-03   876   0.498E-01    0.229E-01
DAV:  13    -0.135939880815E+03   -0.14646E-03   -0.60175E-04   570   0.266E-01    0.262E-01
DAV:  14    -0.135939863443E+03    0.17372E-04   -0.44634E-04   540   0.248E-01
  14 F= -.13593986E+03 E0= -.13593800E+03  d E =-.210813E-01  mag=    20.0006
       N       E                     dE             d eps       ncg     rms          rms(c)
DAV:   1    -0.135836795967E+03    0.10308E+00   -0.65340E+01   792   0.182E+01    0.253E+00
DAV:   2    -0.136521667125E+03   -0.68487E+00   -0.18608E+00  1008   0.145E+01    0.160E+01
DAV:   3    -0.135971309402E+03    0.55036E+00   -0.14687E+00   840   0.127E+01    0.631E+00
DAV:   4    -0.135932327744E+03    0.38982E-01   -0.38597E-01  1080   0.717E+00    0.388E+00
DAV:   5    -0.135970465402E+03   -0.38138E-01   -0.29551E-01  1104   0.524E+00    0.483E+00
DAV:   6    -0.135923551696E+03    0.46914E-01   -0.14160E-01   840   0.413E+00    0.209E+00
DAV:   7    -0.135922975948E+03    0.57575E-03   -0.45314E-02  1002   0.212E+00    0.135E+00
DAV:   8    -0.135931701375E+03   -0.87254E-02   -0.36838E-02   912   0.195E+00    0.219E+00
DAV:   9    -0.135922905212E+03    0.87962E-02   -0.28751E-02   864   0.189E+00    0.124E+00
DAV:  10    -0.135923027429E+03   -0.12222E-03   -0.11425E-02   870   0.143E+00    0.986E-01
DAV:  11    -0.135927206329E+03   -0.41789E-02   -0.14512E-02   972   0.144E+00    0.149E+00
DAV:  12    -0.135922735272E+03    0.44711E-02   -0.96284E-03   900   0.131E+00    0.765E-01
DAV:  13    -0.135922724191E+03    0.11080E-04   -0.47823E-03  1044   0.742E-01    0.661E-01
DAV:  14    -0.135922870915E+03   -0.14672E-03   -0.39507E-03   960   0.671E-01    0.581E-01
DAV:  15    -0.135922332664E+03    0.53825E-03   -0.20805E-03   852   0.525E-01    0.212E-01
DAV:  16    -0.135922641072E+03   -0.30841E-03   -0.69407E-04   726   0.319E-01    0.249E-01
DAV:  17    -0.135922694879E+03   -0.53807E-04   -0.44062E-04   576   0.248E-01
  15 F= -.13592269E+03 E0= -.13592087E+03  d E =-.391270E-02  mag=    20.0002
       N       E                     dE             d eps       ncg     rms          rms(c)
DAV:   1    -0.135891097788E+03    0.31543E-01   -0.38761E+01   792   0.139E+01    0.184E+00
DAV:   2    -0.136228930360E+03   -0.33783E+00   -0.97249E-01  1068   0.100E+01    0.114E+01
DAV:   3    -0.135926680444E+03    0.30225E+00   -0.87780E-01   840   0.934E+00    0.334E+00
DAV:   4    -0.135965575430E+03   -0.38895E-01   -0.23337E-01  1062   0.494E+00    0.392E+00
DAV:   5    -0.135965603545E+03   -0.28115E-04   -0.15335E-01   876   0.387E+00    0.383E+00
DAV:   6    -0.135936811459E+03    0.28792E-01   -0.82579E-02   858   0.283E+00    0.102E+00
DAV:   7    -0.135943996992E+03   -0.71855E-02   -0.19100E-02   990   0.156E+00    0.123E+00
DAV:   8    -0.135947276651E+03   -0.32797E-02   -0.22152E-02   900   0.157E+00    0.162E+00
DAV:   9    -0.135941509916E+03    0.57667E-02   -0.15608E-02   900   0.142E+00    0.806E-01
DAV:  10    -0.135942918983E+03   -0.14091E-02   -0.71104E-03   918   0.106E+00    0.894E-01
DAV:  11    -0.135942264279E+03    0.65470E-03   -0.66415E-03   864   0.948E-01    0.689E-01
DAV:  12    -0.135941557354E+03    0.70693E-03   -0.26656E-03   912   0.636E-01    0.367E-01
DAV:  13    -0.135942026280E+03   -0.46893E-03   -0.14722E-03   840   0.459E-01    0.498E-01
DAV:  14    -0.135941626640E+03    0.39964E-03   -0.15658E-03   816   0.413E-01    0.276E-01
DAV:  15    -0.135941565501E+03    0.61139E-04   -0.51557E-04   552   0.268E-01
  16 F= -.13594157E+03 E0= -.13593972E+03  d E =-.227833E-01  mag=    20.0004
       N       E                     dE             d eps       ncg     rms          rms(c)
DAV:   1    -0.135946529493E+03   -0.49029E-02   -0.67855E-01   816   0.182E+00    0.282E-01
DAV:   2    -0.135957942981E+03   -0.11413E-01   -0.25258E-02  1080   0.185E+00    0.208E+00
DAV:   3    -0.135945857703E+03    0.12085E-01   -0.17700E-02   852   0.174E+00    0.526E-01
DAV:   4    -0.135947412675E+03   -0.15550E-02   -0.44032E-03  1068   0.676E-01    0.447E-01
DAV:   5    -0.135947803489E+03   -0.39081E-03   -0.29385E-03   870   0.512E-01    0.530E-01
DAV:   6    -0.135947195031E+03    0.60846E-03   -0.14349E-03   816   0.426E-01    0.153E-01
DAV:   7    -0.135947351567E+03   -0.15654E-03   -0.35890E-04   486   0.220E-01    0.155E-01
DAV:   8    -0.135947502068E+03   -0.15050E-03   -0.42832E-04   510   0.233E-01    0.255E-01
DAV:   9    -0.135947388240E+03    0.11383E-03   -0.36257E-04   504   0.229E-01    0.137E-01
DAV:  10    -0.135947399877E+03   -0.11637E-04   -0.16452E-04   492   0.149E-01
  17 F= -.13594740E+03 E0= -.13594560E+03  d E =-.583438E-02  mag=    20.0004
       N       E                     dE             d eps       ncg     rms          rms(c)
DAV:   1    -0.135955496166E+03   -0.81079E-02   -0.60911E+00   792   0.544E+00    0.718E-01
DAV:   2    -0.136009611496E+03   -0.54115E-01   -0.15805E-01  1050   0.403E+00    0.431E+00
DAV:   3    -0.135959677213E+03    0.49934E-01   -0.88148E-02   840   0.386E+00    0.144E+00
DAV:   4    -0.135965220439E+03   -0.55432E-02   -0.33060E-02  1128   0.186E+00    0.139E+00
DAV:   5    -0.135965705001E+03   -0.48456E-03   -0.18625E-02   870   0.139E+00    0.124E+00
DAV:   6    -0.135962432485E+03    0.32725E-02   -0.82436E-03   864   0.111E+00    0.428E-01
DAV:   7    -0.135963235496E+03   -0.80301E-03   -0.34921E-03   984   0.637E-01    0.536E-01
DAV:   8    -0.135963977034E+03   -0.74154E-03   -0.46505E-03   888   0.683E-01    0.761E-01
DAV:   9    -0.135962651558E+03    0.13255E-02   -0.31582E-03   852   0.642E-01    0.341E-01
DAV:  10    -0.135962881122E+03   -0.22956E-03   -0.86810E-04   846   0.407E-01    0.295E-01
DAV:  11    -0.135962872258E+03    0.88640E-05   -0.79315E-04   756   0.340E-01
  18 F= -.13596287E+03 E0= -.13596101E+03  d E =-.213068E-01  mag=    20.0002
       N       E                     dE             d eps       ncg     rms          rms(c)
DAV:   1    -0.135955378178E+03    0.75029E-02   -0.24290E+01   792   0.109E+01    0.155E+00
DAV:   2    -0.136226122885E+03   -0.27074E+00   -0.75977E-01   966   0.940E+00    0.916E+00
DAV:   3    -0.135990638169E+03    0.23548E+00   -0.47933E-01   864   0.866E+00    0.386E+00
DAV:   4    -0.135985709730E+03    0.49284E-02   -0.13697E-01  1068   0.412E+00    0.217E+00
DAV:   5    -0.136001463807E+03   -0.15754E-01   -0.83854E-02  1044   0.290E+00    0.287E+00
DAV:   6    -0.135983367580E+03    0.18096E-01   -0.41708E-02   852   0.244E+00    0.103E+00
DAV:   7    -0.135984985454E+03   -0.16179E-02   -0.14629E-02   984   0.132E+00    0.857E-01
DAV:   8    -0.135988835824E+03   -0.38504E-02   -0.16226E-02   930   0.132E+00    0.150E+00
DAV:   9    -0.135983828921E+03    0.50069E-02   -0.13956E-02   858   0.128E+00    0.728E-01
DAV:  10    -0.135984364991E+03   -0.53607E-03   -0.42064E-03   924   0.849E-01    0.591E-01
DAV:  11    -0.135984719044E+03   -0.35405E-03   -0.40154E-03   888   0.735E-01    0.622E-01
DAV:  12    -0.135983930312E+03    0.78873E-03   -0.18156E-03   834   0.570E-01    0.259E-01
DAV:  13    -0.135984114582E+03   -0.18427E-03   -0.64957E-04   666   0.312E-01    0.301E-01
DAV:  14    -0.135984071828E+03    0.42754E-04   -0.57286E-04   534   0.289E-01
  19 F= -.13598407E+03 E0= -.13598227E+03  d E =-.425063E-01  mag=    20.0001
       N       E                     dE             d eps       ncg     rms          rms(c)
DAV:   1    -0.135838786794E+03    0.14533E+00   -0.96290E+01   792   0.218E+01    0.338E+00
DAV:   2    -0.137152945069E+03   -0.13142E+01   -0.41232E+00   894   0.217E+01    0.194E+01
DAV:   3    -0.136223262366E+03    0.92968E+00   -0.30313E+00   864   0.185E+01    0.109E+01
DAV:   4    -0.135949792379E+03    0.27347E+00   -0.65322E-01   948   0.107E+01    0.410E+00
DAV:   5    -0.136000267080E+03   -0.50475E-01   -0.40687E-01  1164   0.598E+00    0.479E+00
DAV:   6    -0.135977568730E+03    0.22698E-01   -0.19824E-01   840   0.468E+00    0.338E+00
DAV:   7    -0.135956907462E+03    0.20661E-01   -0.85188E-02   858   0.324E+00    0.131E+00
DAV:   8    -0.135971232127E+03   -0.14325E-01   -0.43546E-02   990   0.249E+00    0.241E+00
DAV:   9    -0.135957204636E+03    0.14027E-01   -0.36215E-02   870   0.232E+00    0.122E+00
DAV:  10    -0.135959988411E+03   -0.27838E-02   -0.18581E-02   882   0.167E+00    0.139E+00
DAV:  11    -0.135964467312E+03   -0.44789E-02   -0.29031E-02   924   0.185E+00    0.187E+00
DAV:  12    -0.135957292393E+03    0.71749E-02   -0.12686E-02   894   0.154E+00    0.780E-01
DAV:  13    -0.135957621945E+03   -0.32955E-03   -0.41651E-03  1044   0.778E-01    0.624E-01
DAV:  14    -0.135957374474E+03    0.24747E-03   -0.29856E-03   912   0.635E-01    0.451E-01
DAV:  15    -0.135957175543E+03    0.19893E-03   -0.18607E-03   936   0.475E-01    0.238E-01
DAV:  16    -0.135957524429E+03   -0.34889E-03   -0.91417E-04   702   0.340E-01    0.354E-01
DAV:  17    -0.135957414765E+03    0.10966E-03   -0.61243E-04   540   0.295E-01    0.160E-01
DAV:  18    -0.135957446273E+03   -0.31508E-04   -0.19044E-04   516   0.184E-01
  20 F= -.13595745E+03 E0= -.13595588E+03  d E =-.158808E-01  mag=    20.0000
       N       E                     dE             d eps       ncg     rms          rms(c)
DAV:   1    -0.135917134150E+03    0.40281E-01   -0.57499E+01   792   0.168E+01    0.218E+00
DAV:   2    -0.136514853635E+03   -0.59772E+00   -0.15998E+00  1146   0.120E+01    0.172E+01
DAV:   3    -0.135970238207E+03    0.54462E+00   -0.12612E+00   840   0.104E+01    0.456E+00
DAV:   4    -0.136019594558E+03   -0.49356E-01   -0.32212E-01  1092   0.595E+00    0.466E+00
DAV:   5    -0.136025718323E+03   -0.61238E-02   -0.20980E-01   888   0.476E+00    0.451E+00
DAV:   6    -0.135985190867E+03    0.40527E-01   -0.12695E-01   858   0.358E+00    0.144E+00
DAV:   7    -0.135990794373E+03   -0.56035E-02   -0.24952E-02   912   0.202E+00    0.133E+00
DAV:   8    -0.135996385674E+03   -0.55913E-02   -0.27774E-02   948   0.189E+00    0.183E+00
DAV:   9    -0.135988945940E+03    0.74397E-02   -0.23243E-02   858   0.180E+00    0.105E+00
DAV:  10    -0.135991631888E+03   -0.26859E-02   -0.15868E-02   954   0.133E+00    0.139E+00
DAV:  11    -0.135989479081E+03    0.21528E-02   -0.12211E-02   912   0.123E+00    0.976E-01
DAV:  12    -0.135987956156E+03    0.15229E-02   -0.50603E-03   876   0.905E-01    0.412E-01
DAV:  13    -0.135988732389E+03   -0.77623E-03   -0.20539E-03   996   0.579E-01    0.522E-01
DAV:  14    -0.135988072841E+03    0.65955E-03   -0.14212E-03   876   0.494E-01    0.212E-01
DAV:  15    -0.135988164683E+03   -0.91842E-04   -0.44198E-04   588   0.251E-01
  21 F= -.13598816E+03 E0= -.13598649E+03  d E =-.465992E-01  mag=    20.0000
       N       E                     dE             d eps       ncg     rms          rms(c)
DAV:   1    -0.136002824183E+03   -0.14751E-01   -0.40813E+00   792   0.445E+00    0.606E-01
DAV:   2    -0.136045938850E+03   -0.43115E-01   -0.11621E-01  1086   0.362E+00    0.386E+00
DAV:   3    -0.136004603385E+03    0.41335E-01   -0.56604E-02   852   0.343E+00    0.111E+00
DAV:   4    -0.136009635246E+03   -0.50319E-02   -0.22805E-02  1104   0.154E+00    0.119E+00
DAV:   5    -0.136009884176E+03   -0.24893E-03   -0.14373E-02   864   0.116E+00    0.110E+00
DAV:   6    -0.136007365615E+03    0.25186E-02   -0.60799E-03   846   0.906E-01    0.295E-01
DAV:   7    -0.136008028899E+03   -0.66328E-03   -0.19114E-03   870   0.516E-01    0.381E-01
DAV:   8    -0.136008169754E+03   -0.14085E-03   -0.17638E-03   864   0.480E-01    0.393E-01
DAV:   9    -0.136007861235E+03    0.30852E-03   -0.10251E-03   864   0.439E-01    0.279E-01
DAV:  10    -0.136007930676E+03   -0.69441E-04   -0.80807E-04   612   0.312E-01
  22 F= -.13600793E+03 E0= -.13600632E+03  d E =-.197660E-01  mag=    20.0000
       N       E                     dE             d eps       ncg     rms          rms(c)
DAV:   1    -0.135993093049E+03    0.14768E-01   -0.36469E+01   792   0.133E+01    0.178E+00
DAV:   2    -0.136343028978E+03   -0.34994E+00   -0.11228E+00   960   0.107E+01    0.101E+01
DAV:   3    -0.136056319912E+03    0.28671E+00   -0.61089E-01   864   0.973E+00    0.465E+00
DAV:   4    -0.136042878300E+03    0.13442E-01   -0.20359E-01  1050   0.493E+00    0.250E+00
DAV:   5    -0.136062134125E+03   -0.19256E-01   -0.10234E-01   948   0.328E+00    0.317E+00
DAV:   6    -0.136039095653E+03    0.23038E-01   -0.46703E-02   840   0.276E+00    0.110E+00
DAV:   7    -0.136042073821E+03   -0.29782E-02   -0.19420E-02   990   0.153E+00    0.110E+00
DAV:   8    -0.136046462665E+03   -0.43888E-02   -0.18366E-02   906   0.156E+00    0.179E+00
DAV:   9    -0.136039191497E+03    0.72712E-02   -0.14736E-02   870   0.146E+00    0.651E-01
DAV:  10    -0.136041120768E+03   -0.19293E-02   -0.64897E-03   858   0.106E+00    0.793E-01
DAV:  11    -0.136040656793E+03    0.46398E-03   -0.54189E-03   876   0.909E-01    0.698E-01
DAV:  12    -0.136039757606E+03    0.89919E-03   -0.27925E-03   852   0.605E-01    0.328E-01
DAV:  13    -0.136039995927E+03   -0.23832E-03   -0.11490E-03   840   0.375E-01    0.318E-01
DAV:  14    -0.136039902073E+03    0.93854E-04   -0.52411E-04   708   0.310E-01
  23 F= -.13603990E+03 E0= -.13603833E+03  d E =-.517374E-01  mag=    20.0000
       N       E                     dE             d eps       ncg     rms          rms(c)
DAV:   1    -0.136038130956E+03    0.18650E-02   -0.21606E+00   792   0.323E+00    0.424E-01
DAV:   2    -0.136059604537E+03   -0.21474E-01   -0.64545E-02  1104   0.248E+00    0.272E+00
DAV:   3    -0.136039166741E+03    0.20438E-01   -0.39979E-02   852   0.233E+00    0.913E-01
DAV:   4    -0.136041506078E+03   -0.23393E-02   -0.12988E-02  1032   0.113E+00    0.755E-01
DAV:   5    -0.136041514405E+03   -0.83268E-05   -0.50617E-03   846   0.736E-01    0.601E-01
DAV:   6    -0.136040787230E+03    0.72717E-03   -0.19597E-03   834   0.539E-01    0.193E-01
DAV:   7    -0.136041216508E+03   -0.42928E-03   -0.10862E-03   786   0.380E-01    0.366E-01
DAV:   8    -0.136041265744E+03   -0.49236E-04   -0.11195E-03   786   0.395E-01    0.359E-01
DAV:   9    -0.136041058678E+03    0.20707E-03   -0.68105E-04   666   0.328E-01    0.191E-01
DAV:  10    -0.136041165075E+03   -0.10640E-03   -0.42202E-04   492   0.246E-01    0.198E-01
DAV:  11    -0.136041135429E+03    0.29646E-04   -0.26544E-04   480   0.210E-01
  24 F= -.13604114E+03 E0= -.13603955E+03  d E =-.529707E-01  mag=    20.0000
       N       E                     dE             d eps       ncg     rms          rms(c)
DAV:   1    -0.136060388459E+03   -0.19223E-01   -0.65937E+00   792   0.571E+00    0.741E-01
DAV:   2    -0.136113780944E+03   -0.53392E-01   -0.13978E-01  1080   0.397E+00    0.427E+00
DAV:   3    -0.136064891484E+03    0.48889E-01   -0.93103E-02   864   0.392E+00    0.147E+00
DAV:   4    -0.136073139610E+03   -0.82481E-02   -0.43756E-02  1044   0.199E+00    0.170E+00
DAV:   5    -0.136070341238E+03    0.27984E-02   -0.22996E-02   852   0.150E+00    0.105E+00
DAV:   6    -0.136068279297E+03    0.20619E-02   -0.56533E-03   840   0.102E+00    0.300E-01
DAV:   7    -0.136069114507E+03   -0.83521E-03   -0.24100E-03   930   0.577E-01    0.506E-01
DAV:   8    -0.136069308037E+03   -0.19353E-03   -0.30359E-03   858   0.612E-01    0.597E-01
DAV:   9    -0.136068660133E+03    0.64790E-03   -0.21317E-03   852   0.549E-01    0.299E-01
DAV:  10    -0.136069098594E+03   -0.43846E-03   -0.14028E-03   834   0.450E-01    0.452E-01
DAV:  11    -0.136068699729E+03    0.39887E-03   -0.11491E-03   792   0.412E-01    0.208E-01
DAV:  12    -0.136068730356E+03   -0.30627E-04   -0.29668E-04   510   0.223E-01
  25 F= -.13606873E+03 E0= -.13606711E+03  d E =-.275949E-01  mag=    20.0000
       N       E                     dE             d eps       ncg     rms          rms(c)
DAV:   1    -0.136032848575E+03    0.35851E-01   -0.51252E+01   792   0.160E+01    0.214E+00
DAV:   2    -0.136500469929E+03   -0.46762E+00   -0.13002E+00  1008   0.119E+01    0.127E+01
DAV:   3    -0.136117426813E+03    0.38304E+00   -0.93151E-01   828   0.112E+01    0.530E+00
DAV:   4    -0.136113432366E+03    0.39944E-02   -0.30452E-01  1020   0.595E+00    0.372E+00
DAV:   5    -0.136130286220E+03   -0.16854E-01   -0.18425E-01   984   0.427E+00    0.365E+00
DAV:   6    -0.136098159545E+03    0.32127E-01   -0.64791E-02   840   0.334E+00    0.111E+00
DAV:   7    -0.136102956156E+03   -0.47966E-02   -0.22870E-02   960   0.162E+00    0.135E+00
DAV:   8    -0.136105111646E+03   -0.21555E-02   -0.20538E-02   876   0.163E+00    0.147E+00
DAV:   9    -0.136100483439E+03    0.46282E-02   -0.12762E-02   852   0.154E+00    0.748E-01
DAV:  10    -0.136103598788E+03   -0.31153E-02   -0.97939E-03   882   0.127E+00    0.122E+00
DAV:  11    -0.136101429655E+03    0.21691E-02   -0.79266E-03   900   0.119E+00    0.777E-01
DAV:  12    -0.136100745040E+03    0.68462E-03   -0.37605E-03   960   0.743E-01    0.457E-01
DAV:  13    -0.136101125089E+03   -0.38005E-03   -0.24709E-03   882   0.527E-01    0.518E-01
DAV:  14    -0.136100654090E+03    0.47100E-03   -0.12180E-03   828   0.436E-01    0.210E-01
DAV:  15    -0.136100722157E+03   -0.68067E-04   -0.34769E-04   516   0.245E-01
  26 F= -.13610072E+03 E0= -.13609896E+03  d E =-.595867E-01  mag=    20.0000
       N       E                     dE             d eps       ncg     rms          rms(c)
DAV:   1    -0.136116640497E+03   -0.15986E-01   -0.15674E+01   792   0.883E+00    0.116E+00
DAV:   2    -0.136262099074E+03   -0.14546E+00   -0.40434E-01  1008   0.635E+00    0.759E+00
DAV:   3    -0.136132468932E+03    0.12963E+00   -0.32980E-01   834   0.609E+00    0.279E+00
DAV:   4    -0.136141447692E+03   -0.89788E-02   -0.97940E-02   990   0.327E+00    0.207E+00
DAV:   5    -0.136143906998E+03   -0.24593E-02   -0.45704E-02   882   0.225E+00    0.188E+00
DAV:   6    -0.136135659055E+03    0.82479E-02   -0.18316E-02   846   0.166E+00    0.605E-01
DAV:   7    -0.136136892793E+03   -0.12337E-02   -0.52200E-03   924   0.856E-01    0.619E-01
DAV:   8    -0.136137910327E+03   -0.10175E-02   -0.51139E-03   936   0.866E-01    0.796E-01
DAV:   9    -0.136136566258E+03    0.13441E-02   -0.32105E-03   852   0.799E-01    0.424E-01
DAV:  10    -0.136137067001E+03   -0.50074E-03   -0.22643E-03   894   0.582E-01    0.523E-01
DAV:  11    -0.136136797018E+03    0.26998E-03   -0.20234E-03   858   0.536E-01    0.331E-01
DAV:  12    -0.136136681749E+03    0.11527E-03   -0.75070E-04   768   0.349E-01    0.167E-01
DAV:  13    -0.136136819577E+03   -0.13783E-03   -0.31823E-04   498   0.232E-01    0.208E-01
DAV:  14    -0.136136769167E+03    0.50410E-04   -0.19467E-04   486   0.192E-01
  27 F= -.13613677E+03 E0= -.13613482E+03  d E =-.360470E-01  mag=    20.0000
       N       E                     dE             d eps       ncg     rms          rms(c)
DAV:   1    -0.136082675952E+03    0.54144E-01   -0.60861E+01   792   0.175E+01    0.237E+00
DAV:   2    -0.136712545404E+03   -0.62987E+00   -0.17531E+00   954   0.133E+01    0.161E+01
DAV:   3    -0.136201462281E+03    0.51108E+00   -0.14284E+00   840   0.120E+01    0.645E+00
DAV:   4    -0.136168242763E+03    0.33220E-01   -0.36646E-01   936   0.695E+00    0.350E+00
DAV:   5    -0.136206960684E+03   -0.38718E-01   -0.20811E-01  1032   0.471E+00    0.457E+00
DAV:   6    -0.136159741375E+03    0.47219E-01   -0.10871E-01   840   0.376E+00    0.153E+00
DAV:   7    -0.136162930741E+03   -0.31894E-02   -0.25317E-02   900   0.186E+00    0.109E+00
DAV:   8    -0.136167378814E+03   -0.44481E-02   -0.17601E-02   894   0.161E+00    0.147E+00
DAV:   9    -0.136162069644E+03    0.53092E-02   -0.10614E-02   858   0.151E+00    0.658E-01
DAV:  10    -0.136165996653E+03   -0.39270E-02   -0.10909E-02   900   0.131E+00    0.130E+00
DAV:  11    -0.136162540441E+03    0.34562E-02   -0.11477E-02   864   0.123E+00    0.673E-01
DAV:  12    -0.136162636852E+03   -0.96411E-04   -0.41669E-03   990   0.736E-01    0.565E-01
DAV:  13    -0.136163048769E+03   -0.41192E-03   -0.20754E-03   894   0.623E-01    0.588E-01
DAV:  14    -0.136162252946E+03    0.79582E-03   -0.13618E-03   852   0.524E-01    0.182E-01
DAV:  15    -0.136162482813E+03   -0.22987E-03   -0.56634E-04   618   0.295E-01    0.227E-01
DAV:  16    -0.136162539935E+03   -0.57121E-04   -0.50384E-04   498   0.252E-01
  28 F= -.13616254E+03 E0= -.13616023E+03  d E =-.618178E-01  mag=    20.0000
       N       E                     dE             d eps       ncg     rms          rms(c)
DAV:   1    -0.136157282317E+03    0.52005E-02   -0.23192E+01   792   0.108E+01    0.140E+00
DAV:   2    -0.136364007409E+03   -0.20673E+00   -0.58359E-01  1002   0.756E+00    0.925E+00
DAV:   3    -0.136177917247E+03    0.18609E+00   -0.53533E-01   876   0.726E+00    0.314E+00
DAV:   4    -0.136199063341E+03   -0.21146E-01   -0.14030E-01   996   0.402E+00    0.269E+00
DAV:   5    -0.136194641303E+03    0.44220E-02   -0.65960E-02   876   0.274E+00    0.195E+00
DAV:   6    -0.136186317175E+03    0.83241E-02   -0.22711E-02   840   0.181E+00    0.691E-01
DAV:   7    -0.136188019815E+03   -0.17026E-02   -0.75319E-03   906   0.984E-01    0.822E-01
DAV:   8    -0.136189013415E+03   -0.99360E-03   -0.85931E-03   888   0.100E+00    0.933E-01
DAV:   9    -0.136187352942E+03    0.16605E-02   -0.52732E-03   888   0.940E-01    0.500E-01
DAV:  10    -0.136188678054E+03   -0.13251E-02   -0.44511E-03   960   0.796E-01    0.829E-01
DAV:  11    -0.136187807481E+03    0.87057E-03   -0.41135E-03   870   0.775E-01    0.545E-01
DAV:  12    -0.136187321980E+03    0.48550E-03   -0.14961E-03   876   0.550E-01    0.231E-01
DAV:  13    -0.136187552614E+03   -0.23063E-03   -0.69286E-04   648   0.324E-01    0.303E-01
DAV:  14    -0.136187465841E+03    0.86773E-04   -0.62349E-04   552   0.275E-01
  29 F= -.13618747E+03 E0= -.13618475E+03  d E =-.249259E-01  mag=    20.0000
       N       E                     dE             d eps       ncg     rms          rms(c)
DAV:   1    -0.136181773476E+03    0.57791E-02   -0.71988E+00   792   0.601E+00    0.779E-01
DAV:   2    -0.136244955563E+03   -0.63182E-01   -0.17959E-01  1032   0.417E+00    0.500E+00
DAV:   3    -0.136185974484E+03    0.58981E-01   -0.15193E-01   876   0.409E+00    0.168E+00
DAV:   4    -0.136194922082E+03   -0.89476E-02   -0.44960E-02   978   0.218E+00    0.157E+00
DAV:   5    -0.136193006899E+03    0.19152E-02   -0.21101E-02   858   0.153E+00    0.107E+00
DAV:   6    -0.136190575183E+03    0.24317E-02   -0.66002E-03   834   0.999E-01    0.350E-01
DAV:   7    -0.136191259377E+03   -0.68419E-03   -0.25121E-03   918   0.547E-01    0.498E-01
DAV:   8    -0.136191502311E+03   -0.24293E-03   -0.28770E-03   864   0.572E-01    0.521E-01
DAV:   9    -0.136191018084E+03    0.48423E-03   -0.14342E-03   846   0.533E-01    0.281E-01
DAV:  10    -0.136191506208E+03   -0.48812E-03   -0.12447E-03   858   0.454E-01    0.484E-01
DAV:  11    -0.136191087981E+03    0.41823E-03   -0.13285E-03   792   0.439E-01    0.280E-01
DAV:  12    -0.136191033552E+03    0.54429E-04   -0.35113E-04   510   0.279E-01
  30 F= -.13619103E+03 E0= -.13618822E+03  d E =-.284936E-01  mag=    20.0000
       N       E                     dE             d eps       ncg     rms          rms(c)
DAV:   1    -0.136186516647E+03    0.45713E-02   -0.15368E+01   792   0.878E+00    0.110E+00
DAV:   2    -0.136298882562E+03   -0.11237E+00   -0.31056E-01  1014   0.562E+00    0.629E+00
DAV:   3    -0.136199052511E+03    0.99830E-01   -0.23674E-01   876   0.578E+00    0.192E+00
DAV:   4    -0.136222390620E+03   -0.23338E-01   -0.91904E-02  1020   0.300E+00    0.297E+00
DAV:   5    -0.136208515863E+03    0.13875E-01   -0.52896E-02   858   0.234E+00    0.143E+00
DAV:   6    -0.136205774189E+03    0.27417E-02   -0.11569E-02   846   0.137E+00    0.428E-01
DAV:   7    -0.136207756201E+03   -0.19820E-02   -0.55709E-03   978   0.814E-01    0.878E-01
DAV:   8    -0.136206864187E+03    0.89201E-03   -0.49095E-03   906   0.806E-01    0.618E-01
DAV:   9    -0.136206603968E+03    0.26022E-03   -0.23290E-03   876   0.705E-01    0.422E-01
DAV:  10    -0.136207615014E+03   -0.10110E-02   -0.29384E-03   912   0.700E-01    0.728E-01
DAV:  11    -0.136206367949E+03    0.12471E-02   -0.25757E-03   864   0.644E-01    0.288E-01
DAV:  12    -0.136206457718E+03   -0.89769E-04   -0.65394E-04   678   0.318E-01
  31 F= -.13620646E+03 E0= -.13620359E+03  d E =-.154242E-01  mag=    20.0000
       N       E                     dE             d eps       ncg     rms          rms(c)
DAV:   1    -0.136205627399E+03    0.74055E-03   -0.12609E+00   816   0.253E+00    0.410E-01
DAV:   2    -0.136233084962E+03   -0.27458E-01   -0.63398E-02   990   0.268E+00    0.331E+00
DAV:   3    -0.136204525893E+03    0.28559E-01   -0.57888E-02   888   0.262E+00    0.860E-01
DAV:   4    -0.136207178025E+03   -0.26521E-02   -0.88257E-03   972   0.999E-01    0.530E-01
DAV:   5    -0.136207908055E+03   -0.73003E-03   -0.41325E-03  1014   0.702E-01    0.583E-01
DAV:   6    -0.136206997670E+03    0.91039E-03   -0.19186E-03   828   0.559E-01    0.127E-01
DAV:   7    -0.136207232370E+03   -0.23470E-03   -0.53347E-04   624   0.249E-01    0.234E-01
DAV:   8    -0.136207289728E+03   -0.57358E-04   -0.56660E-04   492   0.263E-01
  32 F= -.13620729E+03 E0= -.13620443E+03  d E =-.162562E-01  mag=    20.0000
       N       E                     dE             d eps       ncg     rms          rms(c)
DAV:   1    -0.136203816638E+03    0.34157E-02   -0.10527E+01   792   0.725E+00    0.938E-01
DAV:   2    -0.136293359603E+03   -0.89543E-01   -0.20407E-01  1008   0.494E+00    0.595E+00
DAV:   3    -0.136207498500E+03    0.85861E-01   -0.17000E-01   840   0.488E+00    0.125E+00
DAV:   4    -0.136228955412E+03   -0.21457E-01   -0.59451E-02   990   0.254E+00    0.249E+00
DAV:   5    -0.136216795858E+03    0.12160E-01   -0.32228E-02   840   0.199E+00    0.101E+00
DAV:   6    -0.136216423648E+03    0.37221E-03   -0.65398E-03   852   0.987E-01    0.414E-01
DAV:   7    -0.136217464307E+03   -0.10407E-02   -0.45325E-03   960   0.677E-01    0.701E-01
DAV:   8    -0.136217403229E+03    0.61078E-04   -0.47986E-03   882   0.707E-01    0.659E-01
DAV:   9    -0.136216697100E+03    0.70613E-03   -0.23425E-03   852   0.597E-01    0.394E-01
DAV:  10    -0.136217163413E+03   -0.46631E-03   -0.17628E-03   870   0.511E-01    0.551E-01
DAV:  11    -0.136216730171E+03    0.43324E-03   -0.19421E-03   834   0.517E-01    0.382E-01
DAV:  12    -0.136216628040E+03    0.10213E-03   -0.80910E-04   666   0.328E-01    0.182E-01
DAV:  13    -0.136216716883E+03   -0.88843E-04   -0.34069E-04   492   0.208E-01
  33 F= -.13621672E+03 E0= -.13621369E+03  d E =-.942716E-02  mag=    20.0000
       N       E                     dE             d eps       ncg     rms          rms(c)
DAV:   1    -0.136214398732E+03    0.22293E-02   -0.27338E+00   804   0.370E+00    0.518E-01
DAV:   2    -0.136246403424E+03   -0.32005E-01   -0.61505E-02  1026   0.300E+00    0.352E+00
DAV:   3    -0.136213455925E+03    0.32947E-01   -0.46258E-02   852   0.292E+00    0.644E-01
DAV:   4    -0.136220774069E+03   -0.73181E-02   -0.17908E-02  1020   0.130E+00    0.131E+00
DAV:   5    -0.136217998177E+03    0.27759E-02   -0.95690E-03   852   0.104E+00    0.660E-01
DAV:   6    -0.136217529635E+03    0.46854E-03   -0.28716E-03   852   0.579E-01    0.238E-01
DAV:   7    -0.136217790138E+03   -0.26050E-03   -0.10589E-03   810   0.330E-01    0.271E-01
DAV:   8    -0.136217956211E+03   -0.16607E-03   -0.97232E-04   708   0.347E-01    0.337E-01
DAV:   9    -0.136217749608E+03    0.20660E-03   -0.52229E-04   564   0.313E-01    0.199E-01
DAV:  10    -0.136217894849E+03   -0.14524E-03   -0.48379E-04   504   0.272E-01    0.279E-01
DAV:  11    -0.136217794156E+03    0.10069E-03   -0.44504E-04   504   0.264E-01    0.175E-01
DAV:  12    -0.136217780719E+03    0.13437E-04   -0.18432E-04   492   0.163E-01
  34 F= -.13621778E+03 E0= -.13621477E+03  d E =-.104910E-01  mag=    20.0000
       N       E                     dE             d eps       ncg     rms          rms(c)
DAV:   1    -0.136215423890E+03    0.23703E-02   -0.53534E+00   792   0.519E+00    0.773E-01
DAV:   2    -0.136300802881E+03   -0.85379E-01   -0.16271E-01   990   0.477E+00    0.589E+00
DAV:   3    -0.136212714952E+03    0.88088E-01   -0.12299E-01   876   0.457E+00    0.123E+00
DAV:   4    -0.136225118664E+03   -0.12404E-01   -0.32537E-02  1020   0.189E+00    0.148E+00
DAV:   5    -0.136223641844E+03    0.14768E-02   -0.15365E-02   876   0.138E+00    0.101E+00
DAV:   6    -0.136221555764E+03    0.20861E-02   -0.60245E-03   864   0.887E-01    0.348E-01
DAV:   7    -0.136221976115E+03   -0.42035E-03   -0.18972E-03   882   0.466E-01    0.350E-01
DAV:   8    -0.136222300111E+03   -0.32400E-03   -0.17308E-03   852   0.474E-01    0.448E-01
DAV:   9    -0.136221930858E+03    0.36925E-03   -0.10926E-03   852   0.451E-01    0.269E-01
DAV:  10    -0.136222149630E+03   -0.21877E-03   -0.79906E-04   774   0.386E-01    0.367E-01
DAV:  11    -0.136221999454E+03    0.15018E-03   -0.94780E-04   690   0.358E-01    0.275E-01
DAV:  12    -0.136221881894E+03    0.11756E-03   -0.42144E-04   498   0.241E-01    0.116E-01
DAV:  13    -0.136221942045E+03   -0.60151E-04   -0.14148E-04   492   0.145E-01
  35 F= -.13622194E+03 E0= -.13621889E+03  d E =-.416133E-02  mag=    20.0000
       N       E                     dE             d eps       ncg     rms          rms(c)
DAV:   1    -0.136221887714E+03   -0.58194E-05   -0.56653E-02   822   0.545E-01    0.128E-01
DAV:   2    -0.136225116633E+03   -0.32289E-02   -0.75878E-03   942   0.909E-01    0.121E+00
DAV:   3    -0.136221214599E+03    0.39020E-02   -0.67154E-03   888   0.854E-01    0.222E-01
DAV:   4    -0.136221921930E+03   -0.70733E-03   -0.49736E-04   564   0.252E-01    0.129E-01
DAV:   5    -0.136222018647E+03   -0.96717E-04   -0.27221E-04   486   0.182E-01
  36 F= -.13622202E+03 E0= -.13621898E+03  d E =-.423793E-02  mag=    20.0000
       N       E                     dE             d eps       ncg     rms          rms(c)
DAV:   1    -0.136219318292E+03    0.26036E-02   -0.45875E+00   792   0.479E+00    0.669E-01
DAV:   2    -0.136281777707E+03   -0.62459E-01   -0.11454E-01  1008   0.395E+00    0.526E+00
DAV:   3    -0.136217967360E+03    0.63810E-01   -0.11597E-01   864   0.378E+00    0.106E+00
DAV:   4    -0.136227785821E+03   -0.98185E-02   -0.29347E-02   984   0.175E+00    0.139E+00
DAV:   5    -0.136226098618E+03    0.16872E-02   -0.13424E-02   852   0.130E+00    0.876E-01
DAV:   6    -0.136224613900E+03    0.14847E-02   -0.43138E-03   828   0.796E-01    0.301E-01
DAV:   7    -0.136224961418E+03   -0.34752E-03   -0.15951E-03   876   0.436E-01    0.327E-01
DAV:   8    -0.136225250172E+03   -0.28875E-03   -0.16691E-03   858   0.437E-01    0.435E-01
DAV:   9    -0.136224900006E+03    0.35017E-03   -0.10999E-03   864   0.417E-01    0.265E-01
DAV:  10    -0.136225092846E+03   -0.19284E-03   -0.80900E-04   672   0.335E-01    0.387E-01
DAV:  11    -0.136224954589E+03    0.13826E-03   -0.11565E-03   696   0.343E-01    0.292E-01
DAV:  12    -0.136224841538E+03    0.11305E-03   -0.43298E-04   510   0.270E-01    0.948E-02
DAV:  13    -0.136224893303E+03   -0.51765E-04   -0.10298E-04   480   0.138E-01
  37 F= -.13622489E+03 E0= -.13622193E+03  d E =-.287466E-02  mag=    20.0000
       N       E                     dE             d eps       ncg     rms          rms(c)
DAV:   1    -0.136224860134E+03   -0.18596E-04   -0.26306E-02   828   0.378E-01    0.983E-02
DAV:   2    -0.136226854785E+03   -0.19947E-02   -0.40224E-03   912   0.719E-01    0.926E-01
DAV:   3    -0.136224482699E+03    0.23721E-02   -0.34191E-03   882   0.670E-01    0.173E-01
DAV:   4    -0.136224882561E+03   -0.39986E-03   -0.25370E-04   480   0.192E-01    0.926E-02
DAV:   5    -0.136224930976E+03   -0.48415E-04   -0.14432E-04   492   0.128E-01
  38 F= -.13622493E+03 E0= -.13622197E+03  d E =-.291233E-02  mag=    20.0000
       N       E                     dE             d eps       ncg     rms          rms(c)
DAV:   1    -0.136223181624E+03    0.17009E-02   -0.28215E+00   792   0.377E+00    0.518E-01
DAV:   2    -0.136262515055E+03   -0.39333E-01   -0.81269E-02  1044   0.310E+00    0.418E+00
DAV:   3    -0.136221835822E+03    0.40679E-01   -0.69122E-02   852   0.301E+00    0.761E-01
DAV:   4    -0.136228423461E+03   -0.65876E-02   -0.13946E-02  1008   0.134E+00    0.102E+00
DAV:   5    -0.136227112637E+03    0.13108E-02   -0.69776E-03   840   0.100E+00    0.647E-01
DAV:   6    -0.136226459592E+03    0.65305E-03   -0.23824E-03   834   0.588E-01    0.244E-01
DAV:   7    -0.136226684508E+03   -0.22492E-03   -0.99371E-04   762   0.342E-01    0.290E-01
DAV:   8    -0.136226857756E+03   -0.17325E-03   -0.12132E-03   744   0.356E-01    0.372E-01
DAV:   9    -0.136226611390E+03    0.24637E-03   -0.71428E-04   702   0.329E-01    0.218E-01
DAV:  10    -0.136226768313E+03   -0.15692E-03   -0.64465E-04   600   0.286E-01    0.322E-01
DAV:  11    -0.136226594784E+03    0.17353E-03   -0.67281E-04   504   0.264E-01    0.174E-01
DAV:  12    -0.136226602653E+03   -0.78682E-05   -0.22457E-04   486   0.175E-01
  39 F= -.13622660E+03 E0= -.13622364E+03  d E =-.167168E-02  mag=    20.0000
       N       E                     dE             d eps       ncg     rms          rms(c)
DAV:   1    -0.136226622362E+03   -0.27578E-04   -0.19928E-04   480   0.118E-01    0.107E-01
DAV:   2    -0.136229152322E+03   -0.25300E-02   -0.53124E-03   870   0.854E-01    0.102E+00
DAV:   3    -0.136226180593E+03    0.29717E-02   -0.43503E-03   864   0.768E-01    0.208E-01
DAV:   4    -0.136226601203E+03   -0.42061E-03   -0.27126E-04   492   0.203E-01    0.631E-02
DAV:   5    -0.136226653251E+03   -0.52048E-04   -0.92209E-05   486   0.800E-02
  40 F= -.13622665E+03 E0= -.13622372E+03  d E =-.172228E-02  mag=    20.0000
       N       E                     dE             d eps       ncg     rms          rms(c)
DAV:   1    -0.136226669513E+03   -0.68309E-04   -0.14029E-04   480   0.721E-02    0.626E-02
DAV:   2    -0.136227766305E+03   -0.10968E-02   -0.23101E-03   828   0.514E-01    0.730E-01
DAV:   3    -0.136226394668E+03    0.13716E-02   -0.20312E-03   774   0.460E-01    0.123E-01
DAV:   4    -0.136226674242E+03   -0.27957E-03   -0.99820E-05   480   0.128E-01    0.518E-02
DAV:   5    -0.136226690722E+03   -0.16480E-04   -0.36158E-05   516   0.587E-02
  41 F= -.13622669E+03 E0= -.13622375E+03  d E =-.175975E-02  mag=    20.0000
       N       E                     dE             d eps       ncg     rms          rms(c)
DAV:   1    -0.136226701589E+03   -0.27347E-04   -0.35453E-05   456   0.399E-02    0.296E-02
DAV:   2    -0.136226940604E+03   -0.23901E-03   -0.50099E-04   516   0.242E-01    0.326E-01
DAV:   3    -0.136226636435E+03    0.30417E-03   -0.41142E-04   492   0.217E-01    0.522E-02
DAV:   4    -0.136226708376E+03   -0.71941E-04   -0.16768E-05   474   0.541E-02
  42 F= -.13622671E+03 E0= -.13622378E+03  d E =-.177740E-02  mag=    20.0000
       N       E                     dE             d eps       ncg     rms          rms(c)
DAV:   1    -0.136226714138E+03   -0.77702E-04   -0.82140E-06   468   0.271E-02    0.175E-02
DAV:   2    -0.136226808502E+03   -0.94365E-04   -0.15776E-04   462   0.146E-01
  43 F= -.13622681E+03 E0= -.13622396E+03  d E =-.187753E-02  mag=    20.0000
       N       E                     dE             d eps       ncg     rms          rms(c)
DAV:   1    -0.136226172666E+03    0.54147E-03   -0.13417E+00   792   0.260E+00    0.354E-01
DAV:   2    -0.136241340363E+03   -0.15168E-01   -0.38226E-02  1020   0.198E+00    0.255E+00
DAV:   3    -0.136225770651E+03    0.15570E-01   -0.30994E-02   852   0.193E+00    0.567E-01
DAV:   4    -0.136228673688E+03   -0.29030E-02   -0.64641E-03   936   0.948E-01    0.717E-01
DAV:   5    -0.136228161742E+03    0.51195E-03   -0.35649E-03   864   0.693E-01    0.477E-01
DAV:   6    -0.136227733460E+03    0.42828E-03   -0.14367E-03   804   0.416E-01    0.168E-01
DAV:   7    -0.136227872945E+03   -0.13948E-03   -0.46699E-04   528   0.237E-01    0.187E-01
DAV:   8    -0.136227966760E+03   -0.93815E-04   -0.53996E-04   492   0.246E-01
  44 F= -.13622797E+03 E0= -.13622499E+03  d E =-.115826E-02  mag=    20.0000
       N       E                     dE             d eps       ncg     rms          rms(c)
DAV:   1    -0.136227763392E+03    0.10955E-03   -0.10365E-01   798   0.763E-01    0.159E-01
DAV:   2    -0.136233081735E+03   -0.53183E-02   -0.85098E-03   990   0.114E+00    0.157E+00
DAV:   3    -0.136226706351E+03    0.63754E-02   -0.82430E-03   876   0.111E+00    0.302E-01
DAV:   4    -0.136227852271E+03   -0.11459E-02   -0.11073E-03   828   0.341E-01    0.171E-01
DAV:   5    -0.136227996103E+03   -0.14383E-03   -0.49907E-04   522   0.242E-01    0.219E-01
DAV:   6    -0.136227902790E+03    0.93313E-04   -0.33369E-04   468   0.202E-01
  45 F= -.13622790E+03 E0= -.13622503E+03  d E =-.109429E-02  mag=    20.0000
       N       E                     dE             d eps       ncg     rms          rms(c)
DAV:   1    -0.136227686637E+03    0.30947E-03   -0.91632E-01   792   0.214E+00    0.315E-01
DAV:   2    -0.136239240878E+03   -0.11554E-01   -0.29631E-02  1020   0.179E+00    0.215E+00
DAV:   3    -0.136226622293E+03    0.12619E-01   -0.21178E-02   888   0.176E+00    0.494E-01
DAV:   4    -0.136229276159E+03   -0.26539E-02   -0.50789E-03  1068   0.804E-01    0.603E-01
DAV:   5    -0.136229139820E+03    0.13634E-03   -0.32557E-03   840   0.611E-01    0.500E-01
DAV:   6    -0.136228644270E+03    0.49555E-03   -0.13117E-03   792   0.426E-01    0.153E-01
DAV:   7    -0.136228775010E+03   -0.13074E-03   -0.31073E-04   516   0.211E-01    0.178E-01
DAV:   8    -0.136228896388E+03   -0.12138E-03   -0.47484E-04   504   0.234E-01    0.253E-01
DAV:   9    -0.136228775187E+03    0.12120E-03   -0.36876E-04   504   0.225E-01    0.141E-01
DAV:  10    -0.136228815471E+03   -0.40284E-04   -0.16700E-04   480   0.160E-01
  46 F= -.13622882E+03 E0= -.13622598E+03  d E =-.912680E-03  mag=    20.0000
       N       E                     dE             d eps       ncg     rms          rms(c)
DAV:   1    -0.136228628766E+03    0.14642E-03   -0.26570E-01   816   0.116E+00    0.192E-01
DAV:   2    -0.136233796839E+03   -0.51681E-02   -0.10666E-02  1026   0.121E+00    0.144E+00
DAV:   3    -0.136228196944E+03    0.55999E-02   -0.99913E-03   876   0.117E+00    0.395E-01
DAV:   4    -0.136228948243E+03   -0.75130E-03   -0.20881E-03   924   0.473E-01    0.273E-01
DAV:   5    -0.136229110585E+03   -0.16234E-03   -0.11327E-03   804   0.340E-01    0.286E-01
DAV:   6    -0.136228940958E+03    0.16963E-03   -0.56003E-04   582   0.269E-01    0.130E-01
DAV:   7    -0.136228940363E+03    0.59504E-06   -0.10407E-04   462   0.127E-01
  47 F= -.13622894E+03 E0= -.13622612E+03  d E =-.103757E-02  mag=    20.0000
       N       E                     dE             d eps       ncg     rms          rms(c)
DAV:   1    -0.136228450449E+03    0.49051E-03   -0.10588E+00   792   0.231E+00    0.341E-01
DAV:   2    -0.136243507365E+03   -0.15057E-01   -0.28094E-02  1026   0.206E+00    0.243E+00
DAV:   3    -0.136228116627E+03    0.15391E-01   -0.21982E-02   852   0.199E+00    0.641E-01
DAV:   4    -0.136229867053E+03   -0.17504E-02   -0.68697E-03  1032   0.850E-01    0.548E-01
DAV:   5    -0.136230179018E+03   -0.31196E-03   -0.33371E-03   846   0.620E-01    0.542E-01
DAV:   6    -0.136229533362E+03    0.64566E-03   -0.14902E-03   828   0.454E-01    0.171E-01
DAV:   7    -0.136229678243E+03   -0.14488E-03   -0.44161E-04   492   0.238E-01    0.185E-01
DAV:   8    -0.136229768980E+03   -0.90737E-04   -0.44703E-04   534   0.246E-01
  48 F= -.13622977E+03 E0= -.13622703E+03  d E =-.828617E-03  mag=    20.0000
       N       E                     dE             d eps       ncg     rms          rms(c)
DAV:   1    -0.136229498839E+03    0.17940E-03   -0.15994E-01   810   0.931E-01    0.141E-01
DAV:   2    -0.136232093062E+03   -0.25942E-02   -0.44991E-03  1122   0.844E-01    0.101E+00
DAV:   3    -0.136229366657E+03    0.27264E-02   -0.41599E-03   858   0.842E-01    0.265E-01
DAV:   4    -0.136229786601E+03   -0.41994E-03   -0.10381E-03   864   0.362E-01    0.237E-01
DAV:   5    -0.136229801015E+03   -0.14414E-04   -0.57297E-04   492   0.265E-01
  49 F= -.13622980E+03 E0= -.13622714E+03  d E =-.860652E-03  mag=    20.0000
       N       E                     dE             d eps       ncg     rms          rms(c)
DAV:   1    -0.136229299043E+03    0.48756E-03   -0.72734E-01   804   0.192E+00    0.258E-01
DAV:   2    -0.136235384160E+03   -0.60851E-02   -0.16030E-02  1032   0.133E+00    0.151E+00
DAV:   3    -0.136229265106E+03    0.61191E-02   -0.11912E-02   852   0.134E+00    0.440E-01
DAV:   4    -0.136230733603E+03   -0.14685E-02   -0.37569E-03   960   0.708E-01    0.559E-01
DAV:   5    -0.136230395529E+03    0.33807E-03   -0.24437E-03   852   0.536E-01    0.395E-01
DAV:   6    -0.136230117856E+03    0.27767E-03   -0.92359E-04   750   0.338E-01    0.132E-01
DAV:   7    -0.136230222877E+03   -0.10502E-03   -0.30035E-04   492   0.196E-01    0.167E-01
DAV:   8    -0.136230292741E+03   -0.69864E-04   -0.37344E-04   480   0.222E-01
  50 F= -.13623029E+03 E0= -.13622758E+03  d E =-.491726E-03  mag=    20.0000
       N       E                     dE             d eps       ncg     rms          rms(c)
DAV:   1    -0.136229709801E+03    0.51308E-03   -0.47299E-01   804   0.156E+00    0.218E-01
DAV:   2    -0.136235738210E+03   -0.60284E-02   -0.14956E-02  1110   0.123E+00    0.164E+00
DAV:   3    -0.136229004040E+03    0.67342E-02   -0.13264E-02   876   0.122E+00    0.317E-01
DAV:   4    -0.136230759642E+03   -0.17556E-02   -0.24389E-03   960   0.593E-01    0.504E-01
DAV:   5    -0.136230481011E+03    0.27863E-03   -0.16860E-03   840   0.466E-01    0.356E-01
DAV:   6    -0.136230244210E+03    0.23680E-03   -0.67562E-04   708   0.326E-01    0.988E-02
DAV:   7    -0.136230310603E+03   -0.66393E-04   -0.15782E-04   474   0.149E-01
  51 F= -.13623031E+03 E0= -.13622773E+03  d E =-.509589E-03  mag=    20.0000
       N       E                     dE             d eps       ncg     rms          rms(c)
DAV:   1    -0.136229915536E+03    0.32867E-03   -0.80555E-01   804   0.201E+00    0.299E-01
DAV:   2    -0.136240870916E+03   -0.10955E-01   -0.24114E-02  1074   0.173E+00    0.213E+00
DAV:   3    -0.136229478585E+03    0.11392E-01   -0.22991E-02   852   0.173E+00    0.613E-01
DAV:   4    -0.136231020275E+03   -0.15417E-02   -0.52682E-03   960   0.798E-01    0.443E-01
DAV:   5    -0.136231215247E+03   -0.19497E-03   -0.28409E-03   924   0.551E-01    0.451E-01
DAV:   6    -0.136230748859E+03    0.46639E-03   -0.12620E-03   816   0.392E-01    0.191E-01
DAV:   7    -0.136230798444E+03   -0.49584E-04   -0.31313E-04   492   0.212E-01
  52 F= -.13623080E+03 E0= -.13622831E+03  d E =-.487840E-03  mag=    20.0000
       N       E                     dE             d eps       ncg     rms          rms(c)
DAV:   1    -0.136229784120E+03    0.96474E-03   -0.10038E+00   810   0.225E+00    0.341E-01
DAV:   2    -0.136242641656E+03   -0.12858E-01   -0.29097E-02  1056   0.194E+00    0.223E+00
DAV:   3    -0.136229799886E+03    0.12842E-01   -0.26416E-02   864   0.192E+00    0.724E-01
DAV:   4    -0.136231213829E+03   -0.14139E-02   -0.62066E-03   996   0.914E-01    0.536E-01
DAV:   5    -0.136231410895E+03   -0.19707E-03   -0.30864E-03   876   0.621E-01    0.542E-01
DAV:   6    -0.136230793974E+03    0.61692E-03   -0.17872E-03   840   0.480E-01    0.211E-01
DAV:   7    -0.136230867652E+03   -0.73679E-04   -0.43167E-04   576   0.248E-01
  53 F= -.13623087E+03 E0= -.13622834E+03  d E =-.557049E-03  mag=    20.0000
       N       E                     dE             d eps       ncg     rms          rms(c)
DAV:   1    -0.136230817753E+03   -0.23779E-04   -0.48514E-01   816   0.158E+00    0.348E-01
DAV:   2    -0.136253341125E+03   -0.22523E-01   -0.37124E-02   930   0.245E+00    0.315E+00
DAV:   3    -0.136228041533E+03    0.25300E-01   -0.36858E-02   864   0.232E+00    0.737E-01
DAV:   4    -0.136231060772E+03   -0.30192E-02   -0.51192E-03   948   0.827E-01    0.375E-01
DAV:   5    -0.136231675347E+03   -0.61457E-03   -0.28208E-03  1008   0.548E-01    0.486E-01
DAV:   6    -0.136231175146E+03    0.50020E-03   -0.15783E-03   840   0.426E-01    0.238E-01
DAV:   7    -0.136231162702E+03    0.12444E-04   -0.42472E-04   522   0.246E-01
  54 F= -.13623116E+03 E0= -.13622873E+03  d E =-.295050E-03  mag=    20.0000
       N       E                     dE             d eps       ncg     rms          rms(c)
DAV:   1    -0.136229415083E+03    0.17601E-02   -0.18023E+00   798   0.300E+00    0.478E-01
DAV:   2    -0.136261277705E+03   -0.31863E-01   -0.75101E-02  1044   0.290E+00    0.369E+00
DAV:   3    -0.136226837795E+03    0.34440E-01   -0.72049E-02   864   0.283E+00    0.878E-01
DAV:   4    -0.136232242665E+03   -0.54049E-02   -0.11879E-02   996   0.123E+00    0.815E-01
DAV:   5    -0.136232260729E+03   -0.18064E-04   -0.62571E-03   876   0.856E-01    0.715E-01
DAV:   6    -0.136231203139E+03    0.10576E-02   -0.28089E-03   852   0.627E-01    0.260E-01
DAV:   7    -0.136231368745E+03   -0.16561E-03   -0.82301E-04   744   0.328E-01    0.233E-01
DAV:   8    -0.136231589165E+03   -0.22042E-03   -0.98241E-04   786   0.348E-01    0.333E-01
DAV:   9    -0.136231343068E+03    0.24610E-03   -0.62937E-04   648   0.317E-01    0.186E-01
DAV:  10    -0.136231389443E+03   -0.46375E-04   -0.29135E-04   474   0.217E-01
  55 F= -.13623139E+03 E0= -.13622898E+03  d E =-.521791E-03  mag=    20.0000
       N       E                     dE             d eps       ncg     rms          rms(c)
DAV:   1    -0.136231418326E+03   -0.75258E-04   -0.34555E-01   810   0.134E+00    0.264E-01
DAV:   2    -0.136246525661E+03   -0.15107E-01   -0.25123E-02   966   0.189E+00    0.264E+00
DAV:   3    -0.136229313944E+03    0.17212E-01   -0.26025E-02   876   0.182E+00    0.445E-01
DAV:   4    -0.136231740594E+03   -0.24266E-02   -0.29142E-03   984   0.585E-01    0.290E-01
DAV:   5    -0.136232035219E+03   -0.29463E-03   -0.12400E-03   840   0.401E-01    0.314E-01
DAV:   6    -0.136231798788E+03    0.23643E-03   -0.62349E-04   732   0.312E-01    0.140E-01
DAV:   7    -0.136231817732E+03   -0.18943E-04   -0.17727E-04   474   0.150E-01
  56 F= -.13623182E+03 E0= -.13622944E+03  d E =-.428288E-03  mag=    20.0000
       N       E                     dE             d eps       ncg     rms          rms(c)
DAV:   1    -0.136230336200E+03    0.14626E-02   -0.14720E+00   804   0.272E+00    0.414E-01
DAV:   2    -0.136253839650E+03   -0.23503E-01   -0.42526E-02  1068   0.248E+00    0.314E+00
DAV:   3    -0.136229172160E+03    0.24667E-01   -0.34523E-02   864   0.242E+00    0.722E-01
DAV:   4    -0.136232753107E+03   -0.35809E-02   -0.10154E-02  1074   0.106E+00    0.719E-01
DAV:   5    -0.136232436805E+03    0.31630E-03   -0.44225E-03   846   0.719E-01    0.525E-01
DAV:   6    -0.136231902457E+03    0.53435E-03   -0.17049E-03   828   0.471E-01    0.203E-01
DAV:   7    -0.136232071090E+03   -0.16863E-03   -0.75367E-04   618   0.287E-01    0.242E-01
DAV:   8    -0.136232188923E+03   -0.11783E-03   -0.63657E-04   636   0.312E-01    0.291E-01
DAV:   9    -0.136232043074E+03    0.14585E-03   -0.46305E-04   528   0.297E-01    0.183E-01
DAV:  10    -0.136232083000E+03   -0.39926E-04   -0.33316E-04   486   0.209E-01
  57 F= -.13623208E+03 E0= -.13622976E+03  d E =-.693557E-03  mag=    20.0000
       N       E                     dE             d eps       ncg     rms          rms(c)
DAV:   1    -0.136232046738E+03   -0.36644E-05   -0.30815E-01   804   0.126E+00    0.234E-01
DAV:   2    -0.136242812750E+03   -0.10766E-01   -0.17795E-02  1026   0.163E+00    0.221E+00
DAV:   3    -0.136230827063E+03    0.11986E-01   -0.18957E-02   852   0.156E+00    0.422E-01
DAV:   4    -0.136232385586E+03   -0.15585E-02   -0.24743E-03   960   0.538E-01    0.266E-01
DAV:   5    -0.136232610389E+03   -0.22480E-03   -0.98091E-04   840   0.378E-01    0.284E-01
DAV:   6    -0.136232407316E+03    0.20307E-03   -0.49601E-04   690   0.289E-01    0.113E-01
DAV:   7    -0.136232420523E+03   -0.13207E-04   -0.14729E-04   462   0.130E-01
  58 F= -.13623242E+03 E0= -.13623008E+03  d E =-.337523E-03  mag=    20.0000
       N       E                     dE             d eps       ncg     rms          rms(c)
DAV:   1    -0.136230210366E+03    0.21969E-02   -0.23806E+00   792   0.345E+00    0.524E-01
DAV:   2    -0.136269336252E+03   -0.39126E-01   -0.78165E-02   984   0.320E+00    0.407E+00
DAV:   3    -0.136227447794E+03    0.41888E-01   -0.66426E-02   864   0.310E+00    0.869E-01
DAV:   4    -0.136234071753E+03   -0.66240E-02   -0.14271E-02   996   0.135E+00    0.902E-01
DAV:   5    -0.136233928528E+03    0.14322E-03   -0.77042E-03   876   0.977E-01    0.748E-01
DAV:   6    -0.136232721325E+03    0.12072E-02   -0.32088E-03   840   0.700E-01    0.293E-01
DAV:   7    -0.136232874230E+03   -0.15290E-03   -0.10646E-03   768   0.338E-01    0.232E-01
DAV:   8    -0.136233197218E+03   -0.32299E-03   -0.10429E-03   768   0.363E-01    0.394E-01
DAV:   9    -0.136232860006E+03    0.33721E-03   -0.94754E-04   714   0.351E-01    0.218E-01
DAV:  10    -0.136232914814E+03   -0.54808E-04   -0.39758E-04   498   0.230E-01
  59 F= -.13623291E+03 E0= -.13623059E+03  d E =-.831813E-03  mag=    20.0000
       N       E                     dE             d eps       ncg     rms          rms(c)
DAV:   1    -0.136233172602E+03   -0.31260E-03   -0.27955E-01   810   0.121E+00    0.250E-01
DAV:   2    -0.136247313518E+03   -0.14141E-01   -0.25498E-02   918   0.182E+00    0.257E+00
DAV:   3    -0.136231290901E+03    0.16023E-01   -0.27809E-02   888   0.176E+00    0.430E-01
DAV:   4    -0.136233425445E+03   -0.21345E-02   -0.22120E-03   972   0.570E-01    0.244E-01
DAV:   5    -0.136233736999E+03   -0.31155E-03   -0.97049E-04   822   0.365E-01    0.317E-01
DAV:   6    -0.136233502595E+03    0.23440E-03   -0.56139E-04   666   0.299E-01    0.145E-01
DAV:   7    -0.136233513374E+03   -0.10779E-04   -0.16271E-04   480   0.138E-01
  60 F= -.13623351E+03 E0= -.13623118E+03  d E =-.598560E-03  mag=    20.0000
       N       E                     dE             d eps       ncg     rms          rms(c)
DAV:   1    -0.136233281481E+03    0.22111E-03   -0.43487E-01   804   0.148E+00    0.235E-01
DAV:   2    -0.136240389371E+03   -0.71079E-02   -0.13840E-02  1020   0.139E+00    0.173E+00
DAV:   3    -0.136233004190E+03    0.73852E-02   -0.11664E-02   858   0.138E+00    0.400E-01
DAV:   4    -0.136234007106E+03   -0.10029E-02   -0.31087E-03   984   0.575E-01    0.415E-01
DAV:   5    -0.136234011220E+03   -0.41136E-05   -0.18175E-03   816   0.434E-01    0.363E-01
DAV:   6    -0.136233738598E+03    0.27262E-03   -0.80677E-04   702   0.324E-01    0.132E-01
DAV:   7    -0.136233808968E+03   -0.70370E-04   -0.24579E-04   492   0.178E-01
  61 F= -.13623381E+03 E0= -.13623152E+03  d E =-.894154E-03  mag=    20.0000
       N       E                     dE             d eps       ncg     rms          rms(c)
DAV:   1    -0.136234050388E+03   -0.31179E-03   -0.30034E-01   810   0.124E+00    0.262E-01
DAV:   2    -0.136247568604E+03   -0.13518E-01   -0.21122E-02   954   0.187E+00    0.244E+00
DAV:   3    -0.136232534239E+03    0.15034E-01   -0.22138E-02   900   0.178E+00    0.503E-01
DAV:   4    -0.136234244791E+03   -0.17106E-02   -0.27013E-03   972   0.607E-01    0.272E-01
DAV:   5    -0.136234549431E+03   -0.30464E-03   -0.13082E-03   882   0.398E-01    0.339E-01
DAV:   6    -0.136234331027E+03    0.21840E-03   -0.79656E-04   726   0.323E-01    0.200E-01
DAV:   7    -0.136234294399E+03    0.36627E-04   -0.23871E-04   480   0.177E-01
  62 F= -.13623429E+03 E0= -.13623196E+03  d E =-.485432E-03  mag=    20.0000
       N       E                     dE             d eps       ncg     rms          rms(c)
DAV:   1    -0.136232963052E+03    0.13680E-02   -0.16326E+00   792   0.287E+00    0.437E-01
DAV:   2    -0.136259343658E+03   -0.26381E-01   -0.52291E-02  1026   0.266E+00    0.333E+00
DAV:   3    -0.136231753043E+03    0.27591E-01   -0.42832E-02   852   0.258E+00    0.749E-01
DAV:   4    -0.136235397590E+03   -0.36445E-02   -0.10611E-02  1026   0.109E+00    0.720E-01
DAV:   5    -0.136235518767E+03   -0.12118E-03   -0.57276E-03   882   0.770E-01    0.663E-01
DAV:   6    -0.136234586874E+03    0.93189E-03   -0.27425E-03   852   0.554E-01    0.213E-01
DAV:   7    -0.136234835181E+03   -0.24831E-03   -0.82342E-04   702   0.311E-01    0.243E-01
DAV:   8    -0.136235004413E+03   -0.16923E-03   -0.93039E-04   684   0.334E-01    0.344E-01
DAV:   9    -0.136234780052E+03    0.22436E-03   -0.59479E-04   624   0.323E-01    0.205E-01
DAV:  10    -0.136234805807E+03   -0.25754E-04   -0.28956E-04   474   0.213E-01
  63 F= -.13623481E+03 E0= -.13623246E+03  d E =-.996839E-03  mag=    20.0000
       N       E                     dE             d eps       ncg     rms          rms(c)
DAV:   1    -0.136235019062E+03   -0.23901E-03   -0.18448E-01   804   0.991E-01    0.196E-01
DAV:   2    -0.136242516296E+03   -0.74972E-02   -0.14398E-02   996   0.139E+00    0.181E+00
DAV:   3    -0.136234018379E+03    0.84979E-02   -0.13319E-02   888   0.133E+00    0.376E-01
DAV:   4    -0.136235185200E+03   -0.11668E-02   -0.17967E-03   924   0.462E-01    0.213E-01
DAV:   5    -0.136235372148E+03   -0.18695E-03   -0.76469E-04   768   0.301E-01    0.249E-01
DAV:   6    -0.136235230247E+03    0.14190E-03   -0.36546E-04   480   0.232E-01    0.100E-01
DAV:   7    -0.136235243288E+03   -0.13041E-04   -0.97593E-05   462   0.110E-01
  64 F= -.13623524E+03 E0= -.13623290E+03  d E =-.437481E-03  mag=    20.0000
       N       E                     dE             d eps       ncg     rms          rms(c)
DAV:   1    -0.136234295674E+03    0.93457E-03   -0.14592E+00   792   0.272E+00    0.381E-01
DAV:   2    -0.136253718665E+03   -0.19423E-01   -0.46351E-02  1122   0.222E+00    0.292E+00
DAV:   3    -0.136232201794E+03    0.21517E-01   -0.40000E-02   876   0.217E+00    0.603E-01
DAV:   4    -0.136236911939E+03   -0.47101E-02   -0.88916E-03   984   0.100E+00    0.761E-01
DAV:   5    -0.136236464824E+03    0.44711E-03   -0.49941E-03   840   0.754E-01    0.564E-01
DAV:   6    -0.136235883145E+03    0.58168E-03   -0.19055E-03   816   0.512E-01    0.213E-01
DAV:   7    -0.136236033381E+03   -0.15024E-03   -0.60257E-04   666   0.279E-01    0.204E-01
DAV:   8    -0.136236213154E+03   -0.17977E-03   -0.75162E-04   600   0.299E-01    0.316E-01
DAV:   9    -0.136235982901E+03    0.23025E-03   -0.48354E-04   534   0.288E-01    0.165E-01
DAV:  10    -0.136236034231E+03   -0.51330E-04   -0.23035E-04   468   0.195E-01
  65 F= -.13623603E+03 E0= -.13623372E+03  d E =-.122842E-02  mag=    20.0000
       N       E                     dE             d eps       ncg     rms          rms(c)
DAV:   1    -0.136228265508E+03    0.77174E-02   -0.58301E+00   792   0.544E+00    0.703E-01
DAV:   2    -0.136282812104E+03   -0.54547E-01   -0.13954E-01  1092   0.379E+00    0.482E+00
DAV:   3    -0.136228233339E+03    0.54579E-01   -0.11556E-01   864   0.369E+00    0.113E+00
DAV:   4    -0.136240119558E+03   -0.11886E-01   -0.32927E-02   960   0.198E+00    0.153E+00
DAV:   5    -0.136236630615E+03    0.34889E-02   -0.18167E-02   852   0.147E+00    0.896E-01
DAV:   6    -0.136235279905E+03    0.13507E-02   -0.56317E-03   840   0.894E-01    0.350E-01
DAV:   7    -0.136235730998E+03   -0.45109E-03   -0.19701E-03   900   0.501E-01    0.401E-01
DAV:   8    -0.136236213886E+03   -0.48289E-03   -0.22951E-03   858   0.544E-01    0.598E-01
DAV:   9    -0.136235506913E+03    0.70697E-03   -0.19228E-03   846   0.509E-01    0.330E-01
DAV:  10    -0.136235622648E+03   -0.11574E-03   -0.95532E-04   744   0.354E-01    0.306E-01
DAV:  11    -0.136235535318E+03    0.87330E-04   -0.65441E-04   708   0.322E-01
  66 F= -.13623554E+03 E0= -.13623327E+03  d E =-.729511E-03  mag=    20.0000
       N       E                     dE             d eps       ncg     rms          rms(c)
DAV:   1    -0.136232961873E+03    0.26608E-02   -0.24988E+00   792   0.356E+00    0.455E-01
DAV:   2    -0.136256893894E+03   -0.23932E-01   -0.57986E-02  1170   0.244E+00    0.313E+00
DAV:   3    -0.136232621525E+03    0.24272E-01   -0.38695E-02   852   0.248E+00    0.625E-01
DAV:   4    -0.136238782006E+03   -0.61605E-02   -0.13665E-02  1044   0.127E+00    0.111E+00
DAV:   5    -0.136236065199E+03    0.27168E-02   -0.80601E-03   852   0.960E-01    0.453E-01
DAV:   6    -0.136236089144E+03   -0.23944E-04   -0.17160E-03   882   0.484E-01    0.203E-01
DAV:   7    -0.136236371486E+03   -0.28234E-03   -0.10100E-03   834   0.349E-01    0.310E-01
DAV:   8    -0.136236339622E+03    0.31864E-04   -0.97697E-04   804   0.336E-01
  67 F= -.13623634E+03 E0= -.13623410E+03  d E =-.153381E-02  mag=    20.0000
       N       E                     dE             d eps       ncg     rms          rms(c)
[...]
       N       E                     dE             d eps       ncg     rms          rms(c)
DAV:   1    -0.136251611048E+03    0.67811E-03   -0.73634E-01   792   0.191E+00    0.246E-01
DAV:   2    -0.136257569616E+03   -0.59586E-02   -0.15238E-02  1164   0.126E+00    0.150E+00
DAV:   3    -0.136251829380E+03    0.57402E-02   -0.91647E-03   882   0.127E+00    0.381E-01
DAV:   4    -0.136253419488E+03   -0.15901E-02   -0.37487E-03   924   0.703E-01    0.593E-01
DAV:   5    -0.136252808180E+03    0.61131E-03   -0.21402E-03   858   0.529E-01    0.306E-01
DAV:   6    -0.136252726204E+03    0.81976E-04   -0.63122E-04   732   0.319E-01
  80 F= -.13625273E+03 E0= -.13625075E+03  d E =-.594472E-02  mag=    20.0000
       N       E                     dE             d eps       ncg     rms          rms(c)
DAV:   1    -0.136255325616E+03   -0.25174E-02   -0.15088E-01   816   0.907E-01    0.225E-01
DAV:   2    -0.136265228708E+03   -0.99031E-02   -0.18382E-02   954   0.167E+00    0.202E+00
DAV:   3    -0.136254309144E+03    0.10920E-01   -0.15872E-02   876   0.154E+00    0.414E-01
DAV:   4    -0.136255471855E+03   -0.11627E-02   -0.16795E-03   972   0.452E-01    0.183E-01
DAV:   5    -0.136255697096E+03   -0.22524E-03   -0.64898E-04   720   0.282E-01    0.248E-01
DAV:   6    -0.136255605640E+03    0.91457E-04   -0.43885E-04   516   0.231E-01
  81 F= -.13625561E+03 E0= -.13625368E+03  d E =-.287944E-02  mag=    20.0000
       N       E                     dE             d eps       ncg     rms          rms(c)
DAV:   1    -0.136259795977E+03   -0.40989E-02   -0.13570E+00   792   0.262E+00    0.353E-01
DAV:   2    -0.136271733397E+03   -0.11937E-01   -0.34925E-02  1116   0.193E+00    0.201E+00
DAV:   3    -0.136260560951E+03    0.11172E-01   -0.22625E-02   888   0.187E+00    0.603E-01
DAV:   4    -0.136262715683E+03   -0.21547E-02   -0.86967E-03  1038   0.968E-01    0.754E-01
DAV:   5    -0.136262084840E+03    0.63084E-03   -0.40488E-03   864   0.702E-01    0.506E-01
DAV:   6    -0.136261605790E+03    0.47905E-03   -0.12203E-03   828   0.466E-01    0.179E-01
DAV:   7    -0.136261810652E+03   -0.20486E-03   -0.76565E-04   690   0.291E-01    0.275E-01
DAV:   8    -0.136261941370E+03   -0.13072E-03   -0.11487E-03   768   0.347E-01    0.364E-01
DAV:   9    -0.136261712827E+03    0.22854E-03   -0.68579E-04   606   0.308E-01    0.191E-01
DAV:  10    -0.136261779082E+03   -0.66255E-04   -0.42515E-04   522   0.230E-01
  82 F= -.13626178E+03 E0= -.13625982E+03  d E =-.905288E-02  mag=    20.0001
       N       E                     dE             d eps       ncg     rms          rms(c)
DAV:   1    -0.136256838282E+03    0.48745E-02   -0.54230E+00   792   0.525E+00    0.701E-01
DAV:   2    -0.136304942858E+03   -0.48105E-01   -0.13847E-01  1092   0.388E+00    0.405E+00
DAV:   3    -0.136261114801E+03    0.43828E-01   -0.82288E-02   852   0.373E+00    0.121E+00
DAV:   4    -0.136268542070E+03   -0.74273E-02   -0.32594E-02  1044   0.194E+00    0.147E+00
DAV:   5    -0.136265925770E+03    0.26163E-02   -0.14752E-02   870   0.137E+00    0.936E-01
DAV:   6    -0.136264286030E+03    0.16397E-02   -0.45472E-03   846   0.900E-01    0.383E-01
DAV:   7    -0.136264705787E+03   -0.41976E-03   -0.25029E-03  1002   0.539E-01    0.447E-01
DAV:   8    -0.136265101554E+03   -0.39577E-03   -0.32597E-03   876   0.599E-01    0.601E-01
DAV:   9    -0.136264420967E+03    0.68059E-03   -0.26444E-03   864   0.560E-01    0.350E-01
DAV:  10    -0.136264787760E+03   -0.36679E-03   -0.19255E-03   816   0.450E-01    0.448E-01
DAV:  11    -0.136264530251E+03    0.25751E-03   -0.14891E-03   810   0.432E-01    0.301E-01
DAV:  12    -0.136264425814E+03    0.10444E-03   -0.36809E-04   528   0.257E-01    0.126E-01
DAV:  13    -0.136264470356E+03   -0.44542E-04   -0.17832E-04   492   0.149E-01
  83 F= -.13626447E+03 E0= -.13626255E+03  d E =-.117442E-01  mag=    20.0001
       N       E                     dE             d eps       ncg     rms          rms(c)
DAV:   1    -0.136264420293E+03    0.55211E-05   -0.38728E-01   804   0.140E+00    0.183E-01
DAV:   2    -0.136267480763E+03   -0.30605E-02   -0.84792E-03  1098   0.951E-01    0.104E+00
DAV:   3    -0.136264605853E+03    0.28749E-02   -0.56299E-03   882   0.948E-01    0.322E-01
DAV:   4    -0.136265342988E+03   -0.73713E-03   -0.24435E-03   936   0.520E-01    0.424E-01
DAV:   5    -0.136265147433E+03    0.19556E-03   -0.14725E-03   798   0.390E-01    0.284E-01
DAV:   6    -0.136265019029E+03    0.12840E-03   -0.47251E-04   528   0.258E-01    0.101E-01
DAV:   7    -0.136265081686E+03   -0.62657E-04   -0.19015E-04   504   0.148E-01
  84 F= -.13626508E+03 E0= -.13626316E+03  d E =-.123555E-01  mag=    20.0001
       N       E                     dE             d eps       ncg     rms          rms(c)
DAV:   1    -0.136266992772E+03   -0.19737E-02   -0.34800E-01   822   0.134E+00    0.236E-01
DAV:   2    -0.136276237047E+03   -0.92443E-02   -0.15486E-02  1020   0.162E+00    0.195E+00
DAV:   3    -0.136266525598E+03    0.97114E-02   -0.14167E-02   888   0.155E+00    0.539E-01
DAV:   4    -0.136267326143E+03   -0.80054E-03   -0.32227E-03   972   0.574E-01    0.268E-01
DAV:   5    -0.136267697259E+03   -0.37112E-03   -0.18103E-03   864   0.411E-01    0.370E-01
DAV:   6    -0.136267388891E+03    0.30837E-03   -0.92079E-04   744   0.324E-01    0.160E-01
DAV:   7    -0.136267395909E+03   -0.70182E-05   -0.15609E-04   480   0.145E-01
  85 F= -.13626740E+03 E0= -.13626551E+03  d E =-.231422E-02  mag=    20.0001
       N       E                     dE             d eps       ncg     rms          rms(c)
DAV:   1    -0.136267129453E+03    0.25944E-03   -0.31341E+00   792   0.397E+00    0.555E-01
DAV:   2    -0.136295138447E+03   -0.28009E-01   -0.75627E-02  1044   0.295E+00    0.313E+00
DAV:   3    -0.136267840036E+03    0.27298E-01   -0.54508E-02   852   0.292E+00    0.797E-01
DAV:   4    -0.136274038193E+03   -0.61982E-02   -0.17107E-02  1056   0.138E+00    0.133E+00
DAV:   5    -0.136271436274E+03    0.26019E-02   -0.99611E-03   852   0.113E+00    0.713E-01
DAV:   6    -0.136270652209E+03    0.78407E-03   -0.26231E-03   828   0.681E-01    0.211E-01
DAV:   7    -0.136271228671E+03   -0.57646E-03   -0.18384E-03   894   0.415E-01    0.467E-01
DAV:   8    -0.136271164781E+03    0.63890E-04   -0.25074E-03   870   0.458E-01    0.414E-01
DAV:   9    -0.136270890090E+03    0.27469E-03   -0.10036E-03   810   0.406E-01    0.246E-01
DAV:  10    -0.136271094003E+03   -0.20391E-03   -0.89770E-04   744   0.338E-01    0.334E-01
DAV:  11    -0.136270874982E+03    0.21902E-03   -0.80109E-04   522   0.299E-01    0.163E-01
DAV:  12    -0.136270896936E+03   -0.21954E-04   -0.18010E-04   486   0.170E-01
  86 F= -.13627090E+03 E0= -.13626910E+03  d E =-.581525E-02  mag=    20.0001
       N       E                     dE             d eps       ncg     rms          rms(c)
DAV:   1    -0.136270792587E+03    0.82396E-04   -0.19567E-01   816   0.998E-01    0.184E-01
DAV:   2    -0.136275708498E+03   -0.49159E-02   -0.10162E-02   948   0.123E+00    0.136E+00
DAV:   3    -0.136270449832E+03    0.52587E-02   -0.84619E-03   876   0.115E+00    0.379E-01
DAV:   4    -0.136270986362E+03   -0.53653E-03   -0.14335E-03   924   0.429E-01    0.195E-01
DAV:   5    -0.136271171688E+03   -0.18533E-03   -0.65656E-04   720   0.287E-01    0.262E-01
DAV:   6    -0.136270996521E+03    0.17517E-03   -0.39952E-04   474   0.233E-01    0.657E-02
DAV:   7    -0.136271039466E+03   -0.42945E-04   -0.83401E-05   480   0.913E-02
  87 F= -.13627104E+03 E0= -.13626924E+03  d E =-.595778E-02  mag=    20.0001
       N       E                     dE             d eps       ncg     rms          rms(c)
DAV:   1    -0.136272291888E+03   -0.12954E-02   -0.11215E+00   792   0.237E+00    0.307E-01
DAV:   2    -0.136280229015E+03   -0.79371E-02   -0.22507E-02  1080   0.156E+00    0.164E+00
DAV:   3    -0.136272839637E+03    0.73894E-02   -0.16389E-02   876   0.157E+00    0.531E-01
DAV:   4    -0.136274633976E+03   -0.17943E-02   -0.80675E-03  1044   0.827E-01    0.737E-01
DAV:   5    -0.136273781101E+03    0.85287E-03   -0.44132E-03   852   0.645E-01    0.401E-01
DAV:   6    -0.136273571123E+03    0.20998E-03   -0.10543E-03   792   0.384E-01    0.132E-01
DAV:   7    -0.136273702861E+03   -0.13174E-03   -0.31942E-04   486   0.210E-01    0.187E-01
DAV:   8    -0.136273784609E+03   -0.81748E-04   -0.36640E-04   492   0.233E-01
  88 F= -.13627378E+03 E0= -.13627206E+03  d E =-.274514E-02  mag=    20.0001
       N       E                     dE             d eps       ncg     rms          rms(c)
DAV:   1    -0.136270688855E+03    0.30140E-02   -0.37256E+00   792   0.432E+00    0.524E-01
DAV:   2    -0.136288811624E+03   -0.18123E-01   -0.57347E-02  1116   0.232E+00    0.241E+00
DAV:   3    -0.136274234496E+03    0.14577E-01   -0.38219E-02   852   0.253E+00    0.908E-01
DAV:   4    -0.136279413002E+03   -0.51785E-02   -0.21541E-02   948   0.147E+00    0.143E+00
DAV:   5    -0.136275742733E+03    0.36703E-02   -0.12833E-02   840   0.117E+00    0.728E-01
DAV:   6    -0.136275068004E+03    0.67473E-03   -0.33144E-03   852   0.662E-01    0.200E-01
DAV:   7    -0.136275651390E+03   -0.58339E-03   -0.12794E-03   912   0.399E-01    0.422E-01
DAV:   8    -0.136275615352E+03    0.36038E-04   -0.12906E-03   852   0.427E-01    0.380E-01
DAV:   9    -0.136275430011E+03    0.18534E-03   -0.89013E-04   762   0.370E-01    0.230E-01
DAV:  10    -0.136275531894E+03   -0.10188E-03   -0.57647E-04   666   0.309E-01    0.263E-01
DAV:  11    -0.136275393092E+03    0.13880E-03   -0.44690E-04   588   0.278E-01    0.117E-01
DAV:  12    -0.136275412563E+03   -0.19471E-04   -0.12202E-04   492   0.139E-01
  89 F= -.13627541E+03 E0= -.13627380E+03  d E =-.437310E-02  mag=    20.0002
       N       E                     dE             d eps       ncg     rms          rms(c)
DAV:   1    -0.136275711396E+03   -0.31830E-03   -0.12095E+00   804   0.246E+00    0.325E-01
DAV:   2    -0.136285088307E+03   -0.93769E-02   -0.23657E-02  1050   0.174E+00    0.174E+00
DAV:   3    -0.136276371478E+03    0.87168E-02   -0.17098E-02   876   0.175E+00    0.549E-01
DAV:   4    -0.136278044324E+03   -0.16728E-02   -0.68919E-03  1008   0.854E-01    0.698E-01
DAV:   5    -0.136277492223E+03    0.55210E-03   -0.40597E-03   852   0.670E-01    0.485E-01
DAV:   6    -0.136277040477E+03    0.45175E-03   -0.14801E-03   828   0.416E-01    0.120E-01
DAV:   7    -0.136277211135E+03   -0.17066E-03   -0.39883E-04   516   0.198E-01    0.182E-01
DAV:   8    -0.136277260049E+03   -0.48913E-04   -0.38590E-04   498   0.206E-01
  90 F= -.13627726E+03 E0= -.13627561E+03  d E =-.184749E-02  mag=    20.0002
       N       E                     dE             d eps       ncg     rms          rms(c)
DAV:   1    -0.136276403654E+03    0.80748E-03   -0.10828E+00   804   0.233E+00    0.278E-01
DAV:   2    -0.136282149282E+03   -0.57456E-02   -0.17514E-02  1164   0.120E+00    0.149E+00
DAV:   3    -0.136277136559E+03    0.50127E-02   -0.14824E-02   852   0.135E+00    0.559E-01
DAV:   4    -0.136278814395E+03   -0.16778E-02   -0.58327E-03   936   0.808E-01    0.721E-01
DAV:   5    -0.136277796276E+03    0.10181E-02   -0.31784E-03   852   0.632E-01    0.334E-01
DAV:   6    -0.136277678205E+03    0.11807E-03   -0.82377E-04   786   0.334E-01    0.104E-01
DAV:   7    -0.136277879805E+03   -0.20160E-03   -0.45342E-04   534   0.236E-01    0.253E-01
DAV:   8    -0.136277832748E+03    0.47057E-04   -0.59715E-04   540   0.244E-01
  91 F= -.13627783E+03 E0= -.13627619E+03  d E =-.242018E-02  mag=    20.0001
       N       E                     dE             d eps       ncg     rms          rms(c)
DAV:   1    -0.136277752605E+03    0.12720E-03   -0.10907E+00   804   0.235E+00    0.288E-01
DAV:   2    -0.136283981578E+03   -0.62290E-02   -0.18248E-02  1110   0.132E+00    0.151E+00
DAV:   3    -0.136278632685E+03    0.53489E-02   -0.15522E-02   852   0.145E+00    0.616E-01
DAV:   4    -0.136279949137E+03   -0.13165E-02   -0.61336E-03   960   0.805E-01    0.682E-01
DAV:   5    -0.136279349249E+03    0.59989E-03   -0.35509E-03   864   0.628E-01    0.406E-01
DAV:   6    -0.136279072683E+03    0.27657E-03   -0.91309E-04   810   0.373E-01    0.127E-01
DAV:   7    -0.136279192268E+03   -0.11958E-03   -0.38133E-04   504   0.202E-01    0.199E-01
DAV:   8    -0.136279238104E+03   -0.45836E-04   -0.42910E-04   486   0.228E-01
  92 F= -.13627924E+03 E0= -.13627766E+03  d E =-.140536E-02  mag=    20.0002
       N       E                     dE             d eps       ncg     rms          rms(c)
DAV:   1    -0.136278829220E+03    0.36305E-03   -0.41760E-01   816   0.146E+00    0.190E-01
DAV:   2    -0.136282319547E+03   -0.34903E-02   -0.82743E-03  1134   0.958E-01    0.116E+00
DAV:   3    -0.136278771008E+03    0.35485E-02   -0.67583E-03   864   0.101E+00    0.307E-01
DAV:   4    -0.136279796210E+03   -0.10252E-02   -0.22399E-03   936   0.514E-01    0.482E-01
DAV:   5    -0.136279390756E+03    0.40545E-03   -0.15027E-03   798   0.401E-01    0.235E-01
DAV:   6    -0.136279346237E+03    0.44519E-04   -0.45665E-04   564   0.254E-01
  93 F= -.13627935E+03 E0= -.13627782E+03  d E =-.151349E-02  mag=    20.0002
       N       E                     dE             d eps       ncg     rms          rms(c)
DAV:   1    -0.136279437376E+03   -0.46620E-04   -0.90324E-01   804   0.213E+00    0.303E-01
DAV:   2    -0.136289802676E+03   -0.10365E-01   -0.24546E-02  1056   0.165E+00    0.206E+00
DAV:   3    -0.136279321734E+03    0.10481E-01   -0.21280E-02   852   0.167E+00    0.557E-01
DAV:   4    -0.136280963148E+03   -0.16414E-02   -0.61108E-03  1020   0.796E-01    0.601E-01
DAV:   5    -0.136280768396E+03    0.19475E-03   -0.34234E-03   852   0.604E-01    0.449E-01
DAV:   6    -0.136280355526E+03    0.41287E-03   -0.11635E-03   834   0.426E-01    0.145E-01
DAV:   7    -0.136280471838E+03   -0.11631E-03   -0.36505E-04   516   0.216E-01    0.178E-01
DAV:   8    -0.136280611215E+03   -0.13938E-03   -0.46826E-04   510   0.251E-01    0.261E-01
DAV:   9    -0.136280480396E+03    0.13082E-03   -0.33081E-04   516   0.239E-01    0.117E-01
DAV:  10    -0.136280518860E+03   -0.38464E-04   -0.13714E-04   480   0.159E-01
  94 F= -.13628052E+03 E0= -.13627901E+03  d E =-.117262E-02  mag=    20.0003
       N       E                     dE             d eps       ncg     rms          rms(c)
DAV:   1    -0.136280037730E+03    0.44267E-03   -0.66446E-01   816   0.183E+00    0.242E-01
DAV:   2    -0.136284999452E+03   -0.49617E-02   -0.13878E-02  1110   0.120E+00    0.135E+00
DAV:   3    -0.136280263901E+03    0.47356E-02   -0.11277E-02   852   0.125E+00    0.363E-01
DAV:   4    -0.136281554311E+03   -0.12904E-02   -0.40402E-03  1008   0.640E-01    0.618E-01
DAV:   5    -0.136280904737E+03    0.64957E-03   -0.25751E-03   840   0.516E-01    0.332E-01
DAV:   6    -0.136280772223E+03    0.13251E-03   -0.65303E-04   678   0.294E-01    0.106E-01
DAV:   7    -0.136280844224E+03   -0.72000E-04   -0.18100E-04   492   0.161E-01
  95 F= -.13628084E+03 E0= -.13627932E+03  d E =-.149799E-02  mag=    20.0003
       N       E                     dE             d eps       ncg     rms          rms(c)
DAV:   1    -0.136280763938E+03    0.82851E-05   -0.13617E-01   810   0.841E-01    0.215E-01
DAV:   2    -0.136292236722E+03   -0.11473E-01   -0.17666E-02   936   0.164E+00    0.229E+00
DAV:   3    -0.136278744092E+03    0.13493E-01   -0.15964E-02   912   0.158E+00    0.333E-01
DAV:   4    -0.136280745535E+03   -0.20014E-02   -0.12469E-03   924   0.442E-01    0.192E-01
DAV:   5    -0.136280981409E+03   -0.23587E-03   -0.90991E-04   720   0.289E-01    0.285E-01
DAV:   6    -0.136280844650E+03    0.13676E-03   -0.67899E-04   510   0.251E-01    0.152E-01
DAV:   7    -0.136280829030E+03    0.15620E-04   -0.17058E-04   474   0.155E-01
  96 F= -.13628083E+03 E0= -.13627930E+03  d E =-.148279E-02  mag=    20.0003
       N       E                     dE             d eps       ncg     rms          rms(c)
DAV:   1    -0.136280826513E+03    0.18137E-04   -0.40000E-02   810   0.460E-01    0.103E-01
DAV:   2    -0.136283057794E+03   -0.22313E-02   -0.41466E-03   936   0.761E-01    0.976E-01
DAV:   3    -0.136280435134E+03    0.26227E-02   -0.37800E-03   900   0.731E-01    0.144E-01
DAV:   4    -0.136280875702E+03   -0.44057E-03   -0.29547E-04   528   0.208E-01    0.115E-01
DAV:   5    -0.136280910906E+03   -0.35203E-04   -0.21354E-04   498   0.139E-01
  97 F= -.13628091E+03 E0= -.13627939E+03  d E =-.156467E-02  mag=    20.0003
       N       E                     dE             d eps       ncg     rms          rms(c)
DAV:   1    -0.136280866125E+03    0.95777E-05   -0.99372E-03   828   0.251E-01    0.547E-02
DAV:   2    -0.136281404211E+03   -0.53809E-03   -0.12102E-03   816   0.395E-01    0.467E-01
DAV:   3    -0.136280789435E+03    0.61478E-03   -0.12317E-03   708   0.366E-01    0.131E-01
DAV:   4    -0.136280883149E+03   -0.93714E-04   -0.11735E-04   492   0.132E-01
  98 F= -.13628088E+03 E0= -.13627938E+03  d E =-.153691E-02  mag=    20.0003
       N       E                     dE             d eps       ncg     rms          rms(c)
DAV:   1    -0.136280897036E+03   -0.10760E-03   -0.25094E-03   810   0.138E-01    0.620E-02
DAV:   2    -0.136281975864E+03   -0.10788E-02   -0.17888E-03   834   0.513E-01    0.707E-01
DAV:   3    -0.136280672324E+03    0.13035E-02   -0.17122E-03   744   0.478E-01    0.120E-01
DAV:   4    -0.136280891902E+03   -0.21958E-03   -0.11409E-04   480   0.128E-01    0.573E-02
DAV:   5    -0.136280901079E+03   -0.91777E-05   -0.37567E-05   492   0.658E-02
  99 F= -.13628090E+03 E0= -.13627939E+03  d E =-.155484E-02  mag=    20.0003
       N       E                     dE             d eps       ncg     rms          rms(c)
DAV:   1    -0.136280945440E+03   -0.53538E-04   -0.43297E-01   792   0.148E+00    0.204E-01
DAV:   2    -0.136285232495E+03   -0.42871E-02   -0.11258E-02  1008   0.113E+00    0.126E+00
DAV:   3    -0.136280814726E+03    0.44178E-02   -0.86639E-03   864   0.111E+00    0.247E-01
DAV:   4    -0.136281804719E+03   -0.98999E-03   -0.21958E-03   984   0.511E-01    0.404E-01
DAV:   5    -0.136281476063E+03    0.32866E-03   -0.13635E-03   828   0.383E-01    0.207E-01
DAV:   6    -0.136281444540E+03    0.31524E-04   -0.33880E-04   492   0.189E-01
 100 F= -.13628144E+03 E0= -.13627992E+03  d E =-.543460E-03  mag=    20.0003
       N       E                     dE             d eps       ncg     rms          rms(c)
DAV:   1    -0.136281428443E+03    0.47621E-04   -0.14826E-01   810   0.873E-01    0.166E-01
DAV:   2    -0.136285674548E+03   -0.42461E-02   -0.68684E-03   984   0.107E+00    0.134E+00
DAV:   3    -0.136280911151E+03    0.47634E-02   -0.58838E-03   876   0.103E+00    0.298E-01
DAV:   4    -0.136281527748E+03   -0.61660E-03   -0.12508E-03   840   0.361E-01    0.201E-01
DAV:   5    -0.136281651687E+03   -0.12394E-03   -0.57577E-04   624   0.254E-01    0.219E-01
DAV:   6    -0.136281540646E+03    0.11104E-03   -0.28061E-04   486   0.208E-01    0.716E-02
DAV:   7    -0.136281586012E+03   -0.45366E-04   -0.10889E-04   480   0.139E-01
 101 F= -.13628159E+03 E0= -.13628005E+03  d E =-.684933E-03  mag=    20.0004
       N       E                     dE             d eps       ncg     rms          rms(c)
DAV:   1    -0.136281640338E+03   -0.99692E-04   -0.18486E-01   810   0.974E-01    0.175E-01
DAV:   2    -0.136286064048E+03   -0.44237E-02   -0.93898E-03   972   0.114E+00    0.133E+00
DAV:   3    -0.136281348888E+03    0.47152E-02   -0.94216E-03   864   0.110E+00    0.353E-01
DAV:   4    -0.136281804872E+03   -0.45598E-03   -0.13320E-03   888   0.409E-01    0.180E-01
DAV:   5    -0.136282000980E+03   -0.19611E-03   -0.57246E-04   648   0.290E-01    0.283E-01
DAV:   6    -0.136281814134E+03    0.18685E-03   -0.38610E-04   492   0.240E-01    0.941E-02
DAV:   7    -0.136281837820E+03   -0.23686E-04   -0.93237E-05   462   0.116E-01
 102 F= -.13628184E+03 E0= -.13628027E+03  d E =-.251808E-03  mag=    20.0003
