<?xml version="1.0" encoding="ISO-8859-1"?>
<modeling>
 <generator>
  <i name="program" type="string">vasp </i>
  <i name="version" type="string">6.3.2  </i>
  <i name="subversion" type="string">27Jun22 (build Nov 14 2022 18:12:39) complex                          parallel </i>
  <i name="platform" type="string">Saga </i>
  <i name="date" type="string">2023 01 30 </i>
  <i name="time" type="string">14:27:08 </i>
 </generator>
 <incar>
  <i type="int" name="ISTART">     0</i>
  <i type="string" name="PREC">Accurate</i>
  <i type="int" name="ISPIN">     2</i>
  <i type="int" name="NELM">   120</i>
  <i type="int" name="IBRION">     2</i>
  <i name="EDIFFG">     -0.02000000</i>
  <i type="int" name="NSW">   300</i>
  <i type="int" name="ISYM">    -1</i>
  <i name="ENCUT">    400.00000000</i>
  <i type="int" name="ISMEAR">     0</i>
  <i name="SIGMA">      0.02000000</i>
  <i type="logical" name="LWAVE"> F  </i>
  <i type="logical" name="LCHARG"> F  </i>
  <i type="string" name="GGA">PE</i>
 </incar>
 <primitive_cell>
  <structure name="primitive_cell" >
   <crystal>
    <varray name="basis" >
     <v>      16.00000000       0.00000000       0.00000000 </v>
     <v>       0.00000000      16.00000000       0.00000000 </v>
     <v>       0.00000000       0.00000000      16.00000000 </v>
    </varray>
    <i name="volume">   4096.00000000 </i>
    <varray name="rec_basis" >
     <v>       0.06250000       0.00000000       0.00000000 </v>
     <v>       0.00000000       0.06250000       0.00000000 </v>
     <v>       0.00000000       0.00000000       0.06250000 </v>
    </varray>
   </crystal>
   <varray name="positions" >
    <v>       0.24519860       0.46644179       0.39361015 </v>
    <v>       0.47572325       0.46498100       0.67899954 </v>
    <v>       0.56542719       0.67870942       0.38850544 </v>
    <v>       0.57151158       0.26480365       0.38532892 </v>
    <v>       0.33790829       0.46730806       0.62462410 </v>
    <v>       0.66091724       0.62039149       0.49096673 </v>
    <v>       0.66274834       0.32558292       0.49161963 </v>
    <v>       0.32902893       0.57548410       0.34758521 </v>
    <v>       0.33265598       0.36074344       0.34589142 </v>
    <v>       0.40193155       0.46945372       0.25367487 </v>
    <v>       0.53678343       0.26342178       0.53248366 </v>
    <v>       0.53206341       0.67754946       0.53404357 </v>
    <v>       0.65614852       0.54989485       0.35848137 </v>
    <v>       0.65907786       0.39771757       0.35888769 </v>
    <v>       0.42388649       0.59459986       0.60035727 </v>
    <v>       0.42696413       0.34229346       0.59552709 </v>
    <v>       0.47030708       0.59470583       0.31099861 </v>
    <v>       0.47352537       0.34469672       0.30790031 </v>
    <v>       0.42806297       0.30071906       0.44421720 </v>
    <v>       0.42298968       0.63651049       0.44663129 </v>
    <v>       0.32215600       0.54318651       0.49681990 </v>
    <v>       0.32418167       0.39224283       0.49454388 </v>
    <v>       0.54419114       0.47086200       0.30544723 </v>
    <v>       0.57285586       0.54765889       0.59441562 </v>
    <v>       0.57382906       0.39636477       0.59010852 </v>
    <v>       0.65832766       0.47347092       0.49140329 </v>
    <v>       0.45299669       0.46977254       0.53620476 </v>
    <v>       0.53727524       0.54742795       0.44153168 </v>
    <v>       0.53866168       0.39396091       0.44004928 </v>
    <v>       0.41332524       0.46913049       0.39488239 </v>
    <v>       0.51491247       0.64166722       0.63073326 </v>
    <v>       0.50634486       0.57564337       0.67288310 </v>
   </varray>
  </structure>
  <varray name="primitive_index" >
   <v type="int" >        1 </v>
   <v type="int" >        2 </v>
   <v type="int" >        3 </v>
   <v type="int" >        4 </v>
   <v type="int" >        5 </v>
   <v type="int" >        6 </v>
   <v type="int" >        7 </v>
   <v type="int" >        8 </v>
   <v type="int" >        9 </v>
   <v type="int" >       10 </v>
   <v type="int" >       11 </v>
   <v type="int" >       12 </v>
   <v type="int" >       13 </v>
   <v type="int" >       14 </v>
   <v type="int" >       15 </v>
   <v type="int" >       16 </v>
   <v type="int" >       17 </v>
   <v type="int" >       18 </v>
   <v type="int" >       19 </v>
   <v type="int" >       20 </v>
   <v type="int" >       21 </v>
   <v type="int" >       22 </v>
   <v type="int" >       23 </v>
   <v type="int" >       24 </v>
   <v type="int" >       25 </v>
   <v type="int" >       26 </v>
   <v type="int" >       27 </v>
   <v type="int" >       28 </v>
   <v type="int" >       29 </v>
   <v type="int" >       30 </v>
   <v type="int" >       31 </v>
   <v type="int" >       32 </v>
  </varray>
 </primitive_cell>
 <kpoints>
  <generation param="Monkhorst-Pack">
   <v type="int" name="divisions">       1        1        1 </v>
   <v name="usershift">      0.00000000       0.00000000       0.00000000 </v>
   <v name="genvec1">      1.00000000       0.00000000       0.00000000 </v>
   <v name="genvec2">      0.00000000       1.00000000       0.00000000 </v>
   <v name="genvec3">      0.00000000       0.00000000       1.00000000 </v>
   <v name="shift">      0.00000000       0.00000000       0.00000000 </v>
  </generation>
  <varray name="kpointlist" >
   <v>       0.00000000       0.00000000       0.00000000 </v>
  </varray>
  <varray name="weights" >
   <v>       1.00000000 </v>
  </varray>
 </kpoints>
 <parameters>
  <separator name="general" >
   <i type="string" name="SYSTEM">unknown system</i>
   <i type="logical" name="LCOMPAT"> F  </i>
  </separator>
  <separator name="electronic" >
   <i type="string" name="PREC">accura</i>
   <i name="ENMAX">    400.00000000</i>
   <i name="ENAUG">    544.56500000</i>
   <i name="EDIFF">      0.00010000</i>
   <i type="int" name="IALGO">    38</i>
   <i type="int" name="IWAVPR">    11</i>
   <i type="int" name="NBANDS">   198</i>
   <i type="int" name="NBANDSLOW">    -1</i>
   <i type="int" name="NBANDSHIGH">    -1</i>
   <i name="NELECT">    302.00000000</i>
   <i type="int" name="TURBO">     0</i>
   <i type="int" name="IRESTART">     0</i>
   <i type="int" name="NREBOOT">     0</i>
   <i type="int" name="NMIN">     0</i>
   <i name="EREF">      0.00000000</i>
   <separator name="electronic smearing" >
    <i type="int" name="ISMEAR">     0</i>
    <i name="SIGMA">      0.02000000</i>
    <i name="KSPACING">      0.50000000</i>
    <i type="logical" name="KGAMMA"> T  </i>
    <i type="logical" name="KBLOWUP"> F  </i>
   </separator>
   <separator name="electronic projectors" >
    <i type="logical" name="LREAL"> F  </i>
    <v name="ROPT">      0.00000000      0.00000000</v>
    <i type="int" name="LMAXPAW">  -100</i>
    <i type="int" name="LMAXMIX">     2</i>
    <i type="logical" name="NLSPLINE"> F  </i>
   </separator>
   <separator name="electronic startup" >
    <i type="int" name="ISTART">     0</i>
    <i type="int" name="ICHARG">     2</i>
    <i type="int" name="INIWAV">     1</i>
   </separator>
   <separator name="electronic spin" >
    <i type="int" name="ISPIN">     2</i>
    <i type="logical" name="LNONCOLLINEAR"> F  </i>
    <v name="MAGMOM">      1.00000000      1.00000000      1.00000000      1.00000000      1.00000000      1.00000000      1.00000000      1.00000000      1.00000000      1.00000000      1.00000000      1.00000000      1.00000000      1.00000000      1.00000000      1.00000000      1.00000000      1.00000000      1.00000000      1.00000000
      1.00000000      1.00000000      1.00000000      1.00000000      1.00000000      1.00000000      1.00000000      1.00000000      1.00000000      1.00000000      1.00000000      1.00000000</v>
    <i name="NUPDOWN">     -1.00000000</i>
    <i type="logical" name="LSORBIT"> F  </i>
    <v name="SAXIS">      0.00000000      0.00000000      1.00000000</v>
    <i type="logical" name="LSPIRAL"> F  </i>
    <v name="QSPIRAL">      0.00000000      0.00000000      0.00000000</v>
    <i type="logical" name="LZEROZ"> F  </i>
   </separator>
   <separator name="electronic exchange-correlation" >
    <i type="logical" name="LASPH"> F  </i>
    <i type="logical" name="LMETAGGA"> F  </i>
   </separator>
   <separator name="electronic convergence" >
    <i type="int" name="NELM">   120</i>
    <i type="int" name="NELMDL">    -5</i>
    <i type="int" name="NELMIN">     2</i>
    <i name="ENINI">    400.00000000</i>
    <separator name="electronic convergence detail" >
     <i type="logical" name="LDIAG"> T  </i>
     <i type="logical" name="LSUBROT"> F  </i>
     <i name="WEIMIN">      0.00100000</i>
     <i name="EBREAK">      0.00000013</i>
     <i name="DEPER">      0.30000000</i>
     <i type="int" name="NRMM">     4</i>
     <i name="TIME">      0.40000000</i>
    </separator>
   </separator>
   <separator name="electronic mixer" >
    <i name="AMIX">      0.40000000</i>
    <i name="BMIX">      1.00000000</i>
    <i name="AMIN">      0.10000000</i>
    <i name="AMIX_MAG">      1.60000000</i>
    <i name="BMIX_MAG">      1.00000000</i>
    <separator name="electronic mixer details" >
     <i type="int" name="IMIX">     4</i>
     <i type="logical" name="MIXFIRST"> F  </i>
     <i type="int" name="MAXMIX">   -45</i>
     <i name="WC">    100.00000000</i>
     <i type="int" name="INIMIX">     1</i>
     <i type="int" name="MIXPRE">     1</i>
     <i type="int" name="MREMOVE">     5</i>
    </separator>
   </separator>
   <separator name="electronic dipolcorrection" >
    <i type="logical" name="LDIPOL"> F  </i>
    <i type="logical" name="LMONO"> F  </i>
    <i type="int" name="IDIPOL">     0</i>
    <i name="EPSILON">      1.00000000</i>
    <v name="DIPOL">   -100.00000000   -100.00000000   -100.00000000</v>
    <i name="EFIELD">      0.00000000</i>
   </separator>
  </separator>
  <separator name="grids" >
   <i type="int" name="NGX">   108</i>
   <i type="int" name="NGY">   108</i>
   <i type="int" name="NGZ">   108</i>
   <i type="int" name="NGXF">   216</i>
   <i type="int" name="NGYF">   216</i>
   <i type="int" name="NGZF">   216</i>
   <i type="logical" name="ADDGRID"> F  </i>
  </separator>
  <separator name="ionic" >
   <i type="int" name="NSW">   300</i>
   <i type="int" name="IBRION">     2</i>
   <i type="int" name="MDALGO">     0</i>
   <i type="int" name="ISIF">     2</i>
   <i name="PSTRESS">      0.00000000</i>
   <i name="EDIFFG">     -0.02000000</i>
   <i type="int" name="NFREE">     1</i>
   <i name="POTIM">      0.50000000</i>
   <i name="SMASS">     -3.00000000</i>
   <i name="SCALEE">      1.00000000</i>
  </separator>
  <separator name="ionic md" >
   <i name="TEBEG">      0.00010000</i>
   <i name="TEEND">      0.00010000</i>
   <i type="int" name="NBLOCK">     1</i>
   <i type="int" name="KBLOCK">   300</i>
   <i type="int" name="NPACO">   256</i>
   <i name="APACO">     10.00000000</i>
  </separator>
  <separator name="symmetry" >
   <i type="int" name="ISYM">    -1</i>
   <i name="SYMPREC">      0.00001000</i>
  </separator>
  <separator name="dos" >
   <i type="int" name="LORBIT">     0</i>
   <v name="RWIGS">     -1.00000000     -1.00000000</v>
   <i type="int" name="NEDOS">   301</i>
   <i name="EMIN">     10.00000000</i>
   <i name="EMAX">    -10.00000000</i>
   <i name="EFERMI">      0.00000000</i>
  </separator>
  <separator name="writing" >
   <i type="int" name="NWRITE">     2</i>
   <i type="logical" name="LWAVE"> F  </i>
   <i type="logical" name="LDOWNSAMPLE"> F  </i>
   <i type="logical" name="LCHARG"> F  </i>
   <i type="logical" name="LPARD"> F  </i>
   <i type="logical" name="LVTOT"> F  </i>
   <i type="logical" name="LVHAR"> F  </i>
   <i type="logical" name="LELF"> F  </i>
   <i type="logical" name="LOPTICS"> F  </i>
   <v name="STM">      0.00000000      0.00000000      0.00000000      0.00000000      0.00000000      0.00000000      0.00000000</v>
  </separator>
  <separator name="performance" >
   <i type="int" name="NPAR">     6</i>
   <i type="int" name="NSIM">     4</i>
   <i type="int" name="NBLK">    -1</i>
   <i type="logical" name="LPLANE"> T  </i>
   <i type="logical" name="LSCALAPACK"> T  </i>
   <i type="logical" name="LSCAAWARE"> F  </i>
   <i type="logical" name="LSCALU"> F  </i>
   <i type="logical" name="LASYNC"> F  </i>
   <i type="logical" name="LORBITALREAL"> F  </i>
  </separator>
  <separator name="miscellaneous" >
   <i type="int" name="IDIOT">     3</i>
   <i type="int" name="PHON_NSTRUCT">    -1</i>
   <i type="logical" name="LMUSIC"> F  </i>
   <v name="POMASS">     58.69000000      1.00000000</v>
   <v name="DARWINR">      0.00000000      0.00000000</v>
   <v name="DARWINV">      1.00000000      1.00000000</v>
   <i type="logical" name="LCORR"> T  </i>
  </separator>
  <i type="logical" name="GGA_COMPAT"> T  </i>
  <i type="logical" name="LBERRY"> F  </i>
  <i type="int" name="ICORELEVEL">     0</i>
  <i type="logical" name="LDAU"> F  </i>
  <i type="int" name="I_CONSTRAINED_M">     0</i>
  <separator name="electronic exchange-correlation" >
   <i type="string" name="GGA">PE</i>
   <i type="int" name="VOSKOWN">     0</i>
   <i type="logical" name="LHFCALC"> F  </i>
   <i type="string" name="PRECFOCK"></i>
   <i type="logical" name="LSYMGRAD"> F  </i>
   <i type="logical" name="LHFONE"> F  </i>
   <i type="logical" name="LRHFCALC"> F  </i>
   <i type="logical" name="LTHOMAS"> F  </i>
   <i type="logical" name="LMODELHF"> F  </i>
   <i type="logical" name="LFOCKACE"> F  </i>
   <i name="ENCUT4O">     -1.00000000</i>
   <i type="int" name="EXXOEP">     0</i>
   <i type="int" name="FOURORBIT">     0</i>
   <i name="AEXX">      0.00000000</i>
   <i name="HFALPHA">      0.00000000</i>
   <i name="MCALPHA">      0.00000000</i>
   <i name="ALDAX">      1.00000000</i>
   <i name="AGGAX">      1.00000000</i>
   <i name="ALDAC">      1.00000000</i>
   <i name="AGGAC">      1.00000000</i>
   <i type="int" name="NKREDX">     1</i>
   <i type="int" name="NKREDY">     1</i>
   <i type="int" name="NKREDZ">     1</i>
   <i type="logical" name="SHIFTRED"> F  </i>
   <i type="logical" name="ODDONLY"> F  </i>
   <i type="logical" name="EVENONLY"> F  </i>
   <i type="int" name="LMAXFOCK">     0</i>
   <i type="int" name="NMAXFOCKAE">     0</i>
   <i type="logical" name="LFOCKAEDFT"> F  </i>
   <i name="HFSCREEN">      0.00000000</i>
   <i name="HFSCREENC">      0.00000000</i>
   <i type="int" name="NBANDSGWLOW">     0</i>
  </separator>
  <separator name="vdW DFT" >
   <i type="logical" name="LUSE_VDW"> F  </i>
   <i name="Zab_VDW">     -0.84910000</i>
   <i name="PARAM1">      0.12340000</i>
   <i name="PARAM2">      1.00000000</i>
   <i name="PARAM3">      0.00000000</i>
  </separator>
  <separator name="model GW" >
   <i type="int" name="MODEL_GW">     0</i>
   <i name="MODEL_EPS0">     76.80000000</i>
   <i name="MODEL_ALPHA">      1.00000000</i>
  </separator>
  <separator name="linear response parameters" >
   <i type="logical" name="LEPSILON"> F  </i>
   <i type="logical" name="LRPA"> F  </i>
   <i type="logical" name="LNABLA"> F  </i>
   <i type="logical" name="LVEL"> F  </i>
   <i name="CSHIFT">      0.10000000</i>
   <i name="OMEGAMAX">     -1.00000000</i>
   <i name="DEG_THRESHOLD">      0.00200000</i>
   <i name="RTIME">     -0.10000000</i>
   <i name="WPLASMAI">      0.00000000</i>
   <v name="DFIELD">      0.00000000      0.00000000      0.00000000</v>
   <v name="WPLASMA">      0.00000000      0.00000000      0.00000000      0.00000000      0.00000000      0.00000000      0.00000000      0.00000000      0.00000000</v>
  </separator>
  <separator name="orbital magnetization" >
   <i type="logical" name="NUCIND"> F  </i>
   <v name="MAGPOS">      0.00000000      0.00000000      0.00000000</v>
   <i type="logical" name="LNICSALL"> T  </i>
   <i type="logical" name="ORBITALMAG"> F  </i>
   <i type="logical" name="LMAGBLOCH"> F  </i>
   <i type="logical" name="LCHIMAG"> F  </i>
   <i type="logical" name="LGAUGE"> T  </i>
   <i type="int" name="MAGATOM">     0</i>
   <v name="MAGDIPOL">      0.00000000      0.00000000      0.00000000</v>
   <v name="AVECCONST">      0.00000000      0.00000000      0.00000000</v>
  </separator>
  <separator name="response functions" >
   <i type="logical" name="LFINITE_TEMPERATURE"> F  </i>
   <i type="logical" name="LADDER"> F  </i>
   <i type="logical" name="LRPAFORCE"> F  </i>
   <i type="logical" name="LFXC"> F  </i>
   <i type="logical" name="LHARTREE"> T  </i>
   <i type="int" name="IBSE">     0</i>
   <v type="int" name="KPOINT">    -1     0     0     0</v>
   <i type="logical" name="LTCTC"> F  </i>
   <i type="logical" name="LTCTE"> F  </i>
   <i type="logical" name="LTETE"> F  </i>
   <i type="logical" name="LTRIPLET"> F  </i>
   <i type="logical" name="LFXCEPS"> F  </i>
   <i type="logical" name="LFXHEG"> F  </i>
   <i type="int" name="NATURALO">     2</i>
   <i type="logical" name="LHOLEGF"> F  </i>
   <i type="logical" name="L2ORDER"> F  </i>
   <i type="logical" name="LDMP1"> F  </i>
   <i type="logical" name="LMP2LT"> F  </i>
   <i type="logical" name="LSMP2LT"> F  </i>
   <i type="logical" name="LGWLF"> F  </i>
   <i name="ENCUTGW">     -2.00000000</i>
   <i name="ENCUTGWSOFT">     -2.00000000</i>
   <i name="ENCUTLF">     -1.00000000</i>
   <i type="logical" name="LESF_SPLINES"> F  </i>
   <i type="int" name="LMAXMP2">    -1</i>
   <i name="SCISSOR">      0.00000000</i>
   <i type="int" name="NOMEGA">     0</i>
   <i type="int" name="NOMEGAR">     0</i>
   <i type="int" name="NBANDSGW">    -1</i>
   <i type="int" name="NBANDSO">    -1</i>
   <i type="int" name="NBANDSV">    -1</i>
   <i type="int" name="NELMGW">     1</i>
   <i type="int" name="NELMHF">     1</i>
   <i type="int" name="DIM">     3</i>
   <i type="int" name="IESPILON">     4</i>
   <i type="int" name="ANTIRES">     0</i>
   <i name="OMEGAMAX">    -30.00000000</i>
   <i name="OMEGAMIN">    -30.00000000</i>
   <i name="OMEGATL">   -200.00000000</i>
   <i type="int" name="OMEGAGRID">     0</i>
   <i name="CSHIFT">     -0.10000000</i>
   <i type="logical" name="LSELFENERGY"> F  </i>
   <i type="logical" name="LSPECTRAL"> F  </i>
   <i type="logical" name="LSPECTRALGW"> F  </i>
   <i type="logical" name="LSINGLES"> F  </i>
   <i type="logical" name="LFERMIGW"> F  </i>
   <i type="logical" name="ODDONLYGW"> F  </i>
   <i type="logical" name="EVENONLYGW"> F  </i>
   <i type="int" name="NKREDLFX">     1</i>
   <i type="int" name="NKREDLFY">     1</i>
   <i type="int" name="NKREDLFZ">     1</i>
   <i type="int" name="MAXMEM">  2800</i>
   <i type="int" name="TELESCOPE">     0</i>
   <i type="int" name="NTAUPAR">    -1</i>
   <i type="int" name="NOMEGAPAR">    -1</i>
   <i name="DAMP_NEWTON">      0.80000001</i>
   <i name="LAMBDA">      1.00000000</i>
  </separator>
  <separator name="External order field" >
   <i name="OFIELD_KAPPA">      0.00000000</i>
   <v name="OFIELD_K">      0.00000000      0.00000000      0.00000000</v>
   <i name="OFIELD_Q6_NEAR">      0.00000000</i>
   <i name="OFIELD_Q6_FAR">      0.00000000</i>
   <i name="OFIELD_A">      0.00000000</i>
  </separator>
  <separator name="optional k-points parameters" >
   <i type="int" name="KPOINTS_OPT_MODE">     1</i>
   <i type="logical" name="LKPOINTS_OPT"> F  </i>
  </separator>
 </parameters>
 <atominfo>
  <atoms>      32 </atoms>
  <types>       2 </types>
  <array name="atoms" >
   <dimension dim="1">ion</dimension>
   <field type="string">element</field>
   <field type="int">atomtype</field>
   <set>
    <rc><c>Ni</c><c>   1</c></rc>
    <rc><c>Ni</c><c>   1</c></rc>
    <rc><c>Ni</c><c>   1</c></rc>
    <rc><c>Ni</c><c>   1</c></rc>
    <rc><c>Ni</c><c>   1</c></rc>
    <rc><c>Ni</c><c>   1</c></rc>
    <rc><c>Ni</c><c>   1</c></rc>
    <rc><c>Ni</c><c>   1</c></rc>
    <rc><c>Ni</c><c>   1</c></rc>
    <rc><c>Ni</c><c>   1</c></rc>
    <rc><c>Ni</c><c>   1</c></rc>
    <rc><c>Ni</c><c>   1</c></rc>
    <rc><c>Ni</c><c>   1</c></rc>
    <rc><c>Ni</c><c>   1</c></rc>
    <rc><c>Ni</c><c>   1</c></rc>
    <rc><c>Ni</c><c>   1</c></rc>
    <rc><c>Ni</c><c>   1</c></rc>
    <rc><c>Ni</c><c>   1</c></rc>
    <rc><c>Ni</c><c>   1</c></rc>
    <rc><c>Ni</c><c>   1</c></rc>
    <rc><c>Ni</c><c>   1</c></rc>
    <rc><c>Ni</c><c>   1</c></rc>
    <rc><c>Ni</c><c>   1</c></rc>
    <rc><c>Ni</c><c>   1</c></rc>
    <rc><c>Ni</c><c>   1</c></rc>
    <rc><c>Ni</c><c>   1</c></rc>
    <rc><c>Ni</c><c>   1</c></rc>
    <rc><c>Ni</c><c>   1</c></rc>
    <rc><c>Ni</c><c>   1</c></rc>
    <rc><c>Ni</c><c>   1</c></rc>
    <rc><c>H </c><c>   2</c></rc>
    <rc><c>H </c><c>   2</c></rc>
   </set>
  </array>
  <array name="atomtypes" >
   <dimension dim="1">type</dimension>
   <field type="int">atomspertype</field>
   <field type="string">element</field>
   <field>mass</field>
   <field>valence</field>
   <field type="string">pseudopotential</field>
   <set>
    <rc><c>  30</c><c>Ni</c><c>     58.69000000</c><c>     10.00000000</c><c>  PAW_PBE Ni 02Aug2007                  </c></rc>
    <rc><c>   2</c><c>H </c><c>      1.00000000</c><c>      1.00000000</c><c>  PAW_PBE H 15Jun2001                   </c></rc>
   </set>
  </array>
 </atominfo>
 <structure name="initialpos" >
  <crystal>
   <varray name="basis" >
    <v>      16.00000000       0.00000000       0.00000000 </v>
    <v>       0.00000000      16.00000000       0.00000000 </v>
    <v>       0.00000000       0.00000000      16.00000000 </v>
   </varray>
   <i name="volume">   4096.00000000 </i>
   <varray name="rec_basis" >
    <v>       0.06250000       0.00000000       0.00000000 </v>
    <v>       0.00000000       0.06250000       0.00000000 </v>
    <v>       0.00000000       0.00000000       0.06250000 </v>
   </varray>
  </crystal>
  <varray name="positions" >
   <v>       0.24519860       0.46644179       0.39361015 </v>
   <v>       0.47572325       0.46498100       0.67899954 </v>
   <v>       0.56542719       0.67870942       0.38850544 </v>
   <v>       0.57151158       0.26480365       0.38532892 </v>
   <v>       0.33790829       0.46730806       0.62462410 </v>
   <v>       0.66091724       0.62039149       0.49096673 </v>
   <v>       0.66274834       0.32558292       0.49161963 </v>
   <v>       0.32902893       0.57548410       0.34758521 </v>
   <v>       0.33265598       0.36074344       0.34589142 </v>
   <v>       0.40193155       0.46945372       0.25367487 </v>
   <v>       0.53678343       0.26342178       0.53248366 </v>
   <v>       0.53206341       0.67754946       0.53404357 </v>
   <v>       0.65614852       0.54989485       0.35848137 </v>
   <v>       0.65907786       0.39771757       0.35888769 </v>
   <v>       0.42388649       0.59459986       0.60035727 </v>
   <v>       0.42696413       0.34229346       0.59552709 </v>
   <v>       0.47030708       0.59470583       0.31099861 </v>
   <v>       0.47352537       0.34469672       0.30790031 </v>
   <v>       0.42806297       0.30071906       0.44421720 </v>
   <v>       0.42298968       0.63651049       0.44663129 </v>
   <v>       0.32215600       0.54318651       0.49681990 </v>
   <v>       0.32418167       0.39224283       0.49454388 </v>
   <v>       0.54419114       0.47086200       0.30544723 </v>
   <v>       0.57285586       0.54765889       0.59441562 </v>
   <v>       0.57382906       0.39636477       0.59010852 </v>
   <v>       0.65832766       0.47347092       0.49140329 </v>
   <v>       0.45299669       0.46977254       0.53620476 </v>
   <v>       0.53727524       0.54742795       0.44153168 </v>
   <v>       0.53866168       0.39396091       0.44004928 </v>
   <v>       0.41332524       0.46913049       0.39488239 </v>
   <v>       0.51491247       0.64166722       0.63073326 </v>
   <v>       0.50634486       0.57564337       0.67288310 </v>
  </varray>
 </structure>
 <calculation>
  <scstep>
   <time name="dav">    1.68    1.86</time>
   <time name="total">    1.94    2.13</time>
   <energy>
    <i name="alphaZ">    113.16553179 </i>
    <i name="ewald">  56800.32436098 </i>
    <i name="hartreedc"> -86622.87460855 </i>
    <i name="XCdc">    937.95532449 </i>
    <i name="pawpsdc">  28888.58386782 </i>
    <i name="pawaedc"> -30893.72677109 </i>
    <i name="eentropy">     -0.01410651 </i>
    <i name="bandstr">    -67.17642687 </i>
    <i name="atom">  32354.87237921 </i>
    <i name="e_fr_energy">   1511.10955128 </i>
    <i name="e_wo_entrp">   1511.12365779 </i>
    <i name="e_0_energy">   1511.11660453 </i>
   </energy>
  </scstep>
  <scstep>
   <time name="dav">    1.71    1.73</time>
   <time name="total">    1.71    1.73</time>
   <energy>
    <i name="e_fr_energy">    -69.36139397 </i>
    <i name="e_wo_entrp">    -69.34472849 </i>
    <i name="e_0_energy">    -69.35306123 </i>
   </energy>
  </scstep>
  <scstep>
   <time name="dav">    1.73    1.75</time>
   <time name="total">    1.73    1.75</time>
   <energy>
    <i name="e_fr_energy">   -152.56939783 </i>
    <i name="e_wo_entrp">   -152.55440115 </i>
    <i name="e_0_energy">   -152.56189949 </i>
   </energy>
  </scstep>
  <scstep>
   <time name="dav">    1.80    1.81</time>
   <time name="total">    1.80    1.81</time>
   <energy>
    <i name="e_fr_energy">   -154.46164203 </i>
    <i name="e_wo_entrp">   -154.44947528 </i>
    <i name="e_0_energy">   -154.45555865 </i>
   </energy>
  </scstep>
  <scstep>
   <time name="dav">    1.84    1.86</time>
   <time name="total">    1.93    1.95</time>
   <energy>
    <i name="e_fr_energy">   -154.50595018 </i>
    <i name="e_wo_entrp">   -154.49381862 </i>
    <i name="e_0_energy">   -154.49988440 </i>
   </energy>
  </scstep>
  <scstep>
   <time name="dav">    1.70    1.70</time>
   <time name="total">    2.01    2.03</time>
   <energy>
    <i name="e_fr_energy">   -168.95904707 </i>
    <i name="e_wo_entrp">   -168.95362772 </i>
    <i name="e_0_energy">   -168.95633739 </i>
   </energy>
  </scstep>
  <scstep>
   <time name="dav">    1.72    1.73</time>
   <time name="total">    2.03    2.05</time>
   <energy>
    <i name="e_fr_energy">   -153.92963147 </i>
    <i name="e_wo_entrp">   -153.91109452 </i>
    <i name="e_0_energy">   -153.92036300 </i>
   </energy>
  </scstep>
  <scstep>
   <time name="dav">    1.71    1.71</time>
   <time name="total">    2.01    2.03</time>
   <energy>
    <i name="e_fr_energy">   -150.17991864 </i>
    <i name="e_wo_entrp">   -150.17090357 </i>
    <i name="e_0_energy">   -150.17541110 </i>
   </energy>
  </scstep>
  <scstep>
   <time name="dav">    1.80    1.80</time>
   <time name="total">    2.09    2.11</time>
   <energy>
    <i name="e_fr_energy">   -145.62211888 </i>
    <i name="e_wo_entrp">   -145.61178429 </i>
    <i name="e_0_energy">   -145.61695159 </i>
   </energy>
  </scstep>
  <scstep>
   <time name="dav">    1.76    1.77</time>
   <time name="total">    2.06    2.08</time>
   <energy>
    <i name="e_fr_energy">   -138.57311725 </i>
    <i name="e_wo_entrp">   -138.56242944 </i>
    <i name="e_0_energy">   -138.56777335 </i>
   </energy>
  </scstep>
  <scstep>
   <time name="dav">    1.77    1.77</time>
   <time name="total">    2.06    2.08</time>
   <energy>
    <i name="e_fr_energy">   -142.67923358 </i>
    <i name="e_wo_entrp">   -142.67053295 </i>
    <i name="e_0_energy">   -142.67488326 </i>
   </energy>
  </scstep>
  <scstep>
   <time name="dav">    1.75    1.76</time>
   <time name="total">    2.05    2.07</time>
   <energy>
    <i name="e_fr_energy">   -136.02799546 </i>
    <i name="e_wo_entrp">   -136.01967408 </i>
    <i name="e_0_energy">   -136.02383477 </i>
   </energy>
  </scstep>
  <scstep>
   <time name="dav">    1.70    1.70</time>
   <time name="total">    2.00    2.01</time>
   <energy>
    <i name="e_fr_energy">   -131.74882529 </i>
    <i name="e_wo_entrp">   -131.74012734 </i>
    <i name="e_0_energy">   -131.74447632 </i>
   </energy>
  </scstep>
  <scstep>
   <time name="dav">    1.78    1.78</time>
   <time name="total">    2.08    2.09</time>
   <energy>
    <i name="e_fr_energy">   -129.37576453 </i>
    <i name="e_wo_entrp">   -129.36692280 </i>
    <i name="e_0_energy">   -129.37134366 </i>
   </energy>
  </scstep>
  <scstep>
   <time name="dav">    1.80    1.80</time>
   <time name="total">    2.10    2.11</time>
   <energy>
    <i name="e_fr_energy">   -128.55640372 </i>
    <i name="e_wo_entrp">   -128.54190563 </i>
    <i name="e_0_energy">   -128.54915467 </i>
   </energy>
  </scstep>
  <scstep>
   <time name="dav">    1.78    1.78</time>
   <time name="total">    2.08    2.10</time>
   <energy>
    <i name="e_fr_energy">   -128.86168417 </i>
    <i name="e_wo_entrp">   -128.85051694 </i>
    <i name="e_0_energy">   -128.85610056 </i>
   </energy>
  </scstep>
  <scstep>
   <time name="dav">    1.70    1.70</time>
   <time name="total">    2.00    2.01</time>
   <energy>
    <i name="e_fr_energy">   -128.83122883 </i>
    <i name="e_wo_entrp">   -128.81602005 </i>
    <i name="e_0_energy">   -128.82362444 </i>
   </energy>
  </scstep>
  <scstep>
   <time name="dav">    1.68    1.69</time>
   <time name="total">    1.98    2.00</time>
   <energy>
    <i name="e_fr_energy">   -128.58485322 </i>
    <i name="e_wo_entrp">   -128.57002440 </i>
    <i name="e_0_energy">   -128.57743881 </i>
   </energy>
  </scstep>
  <scstep>
   <time name="dav">    2.06    2.06</time>
   <time name="total">    2.36    2.38</time>
   <energy>
    <i name="e_fr_energy">   -129.11766118 </i>
    <i name="e_wo_entrp">   -129.10555529 </i>
    <i name="e_0_energy">   -129.11160824 </i>
   </energy>
  </scstep>
  <scstep>
   <time name="dav">    1.68    1.68</time>
   <time name="total">    1.98    1.99</time>
   <energy>
    <i name="e_fr_energy">   -129.63191571 </i>
    <i name="e_wo_entrp">   -129.61789494 </i>
    <i name="e_0_energy">   -129.62490532 </i>
   </energy>
  </scstep>
  <scstep>
   <time name="dav">    1.74    1.74</time>
   <time name="total">    2.04    2.06</time>
   <energy>
    <i name="e_fr_energy">   -129.73042738 </i>
    <i name="e_wo_entrp">   -129.71606387 </i>
    <i name="e_0_energy">   -129.72324563 </i>
   </energy>
  </scstep>
  <scstep>
   <time name="dav">    1.74    1.75</time>
   <time name="total">    2.05    2.07</time>
   <energy>
    <i name="e_fr_energy">   -130.34996921 </i>
    <i name="e_wo_entrp">   -130.34331113 </i>
    <i name="e_0_energy">   -130.34664017 </i>
   </energy>
  </scstep>
  <scstep>
   <time name="dav">    1.79    1.79</time>
   <time name="total">    2.10    2.12</time>
   <energy>
    <i name="e_fr_energy">   -130.78355794 </i>
    <i name="e_wo_entrp">   -130.76952284 </i>
    <i name="e_0_energy">   -130.77654039 </i>
   </energy>
  </scstep>
  <scstep>
   <time name="dav">    1.76    1.76</time>
   <time name="total">    2.06    2.08</time>
   <energy>
    <i name="e_fr_energy">   -130.96407045 </i>
    <i name="e_wo_entrp">   -130.94996456 </i>
    <i name="e_0_energy">   -130.95701751 </i>
   </energy>
  </scstep>
  <scstep>
   <time name="dav">    1.77    1.78</time>
   <time name="total">    2.08    2.10</time>
   <energy>
    <i name="e_fr_energy">   -131.52672016 </i>
    <i name="e_wo_entrp">   -131.51297915 </i>
    <i name="e_0_energy">   -131.51984966 </i>
   </energy>
  </scstep>
  <scstep>
   <time name="dav">    1.74    1.74</time>
   <time name="total">    2.05    2.06</time>
   <energy>
    <i name="e_fr_energy">   -131.97742061 </i>
    <i name="e_wo_entrp">   -131.96961861 </i>
    <i name="e_0_energy">   -131.97351961 </i>
   </energy>
  </scstep>
  <scstep>
   <time name="dav">    1.90    1.91</time>
   <time name="total">    2.21    2.23</time>
   <energy>
    <i name="e_fr_energy">   -132.78122602 </i>
    <i name="e_wo_entrp">   -132.77057987 </i>
    <i name="e_0_energy">   -132.77590295 </i>
   </energy>
  </scstep>
  <scstep>
   <time name="dav">    1.74    1.74</time>
   <time name="total">    2.05    2.07</time>
   <energy>
    <i name="e_fr_energy">   -132.95246645 </i>
    <i name="e_wo_entrp">   -132.94653034 </i>
    <i name="e_0_energy">   -132.94949839 </i>
   </energy>
  </scstep>
  <scstep>
   <time name="dav">    1.71    1.71</time>
   <time name="total">    2.00    2.02</time>
   <energy>
    <i name="e_fr_energy">   -133.24697129 </i>
    <i name="e_wo_entrp">   -133.23650050 </i>
    <i name="e_0_energy">   -133.24173590 </i>
   </energy>
  </scstep>
  <scstep>
   <time name="dav">    1.75    1.75</time>
   <time name="total">    2.06    2.07</time>
   <energy>
    <i name="e_fr_energy">   -133.36052722 </i>
    <i name="e_wo_entrp">   -133.35268957 </i>
    <i name="e_0_energy">   -133.35660840 </i>
   </energy>
  </scstep>
  <scstep>
   <time name="dav">    1.83    1.83</time>
   <time name="total">    2.15    2.17</time>
   <energy>
    <i name="e_fr_energy">   -133.66390166 </i>
    <i name="e_wo_entrp">   -133.65485663 </i>
    <i name="e_0_energy">   -133.65937914 </i>
   </energy>
  </scstep>
  <scstep>
   <time name="dav">    1.72    1.72</time>
   <time name="total">    2.04    2.06</time>
   <energy>
    <i name="e_fr_energy">   -133.81384369 </i>
    <i name="e_wo_entrp">   -133.80555796 </i>
    <i name="e_0_energy">   -133.80970083 </i>
   </energy>
  </scstep>
  <scstep>
   <time name="dav">    1.78    1.79</time>
   <time name="total">    2.10    2.12</time>
   <energy>
    <i name="e_fr_energy">   -134.04558346 </i>
    <i name="e_wo_entrp">   -134.03779754 </i>
    <i name="e_0_energy">   -134.04169050 </i>
   </energy>
  </scstep>
  <scstep>
   <time name="dav">    1.71    1.72</time>
   <time name="total">    2.03    2.05</time>
   <energy>
    <i name="e_fr_energy">   -134.32071091 </i>
    <i name="e_wo_entrp">   -134.31379928 </i>
    <i name="e_0_energy">   -134.31725510 </i>
   </energy>
  </scstep>
  <scstep>
   <time name="dav">    1.72    1.73</time>
   <time name="total">    2.04    2.06</time>
   <energy>
    <i name="e_fr_energy">   -134.48864904 </i>
    <i name="e_wo_entrp">   -134.48119033 </i>
    <i name="e_0_energy">   -134.48491969 </i>
   </energy>
  </scstep>
  <scstep>
   <time name="dav">    1.74    1.74</time>
   <time name="total">    2.06    2.07</time>
   <energy>
    <i name="e_fr_energy">   -134.80618687 </i>
    <i name="e_wo_entrp">   -134.79997673 </i>
    <i name="e_0_energy">   -134.80308180 </i>
   </energy>
  </scstep>
  <scstep>
   <time name="dav">    1.77    1.77</time>
   <time name="total">    2.09    2.10</time>
   <energy>
    <i name="e_fr_energy">   -134.89697460 </i>
    <i name="e_wo_entrp">   -134.88994713 </i>
    <i name="e_0_energy">   -134.89346086 </i>
   </energy>
  </scstep>
  <scstep>
   <time name="dav">    1.68    1.68</time>
   <time name="total">    1.98    2.00</time>
   <energy>
    <i name="e_fr_energy">   -135.09680605 </i>
    <i name="e_wo_entrp">   -135.08974289 </i>
    <i name="e_0_energy">   -135.09327447 </i>
   </energy>
  </scstep>
  <scstep>
   <time name="dav">    1.77    1.77</time>
   <time name="total">    2.08    2.09</time>
   <energy>
    <i name="e_fr_energy">   -135.15525804 </i>
    <i name="e_wo_entrp">   -135.14871039 </i>
    <i name="e_0_energy">   -135.15198422 </i>
   </energy>
  </scstep>
  <scstep>
   <time name="dav">    1.85    1.85</time>
   <time name="total">    2.17    2.19</time>
   <energy>
    <i name="e_fr_energy">   -135.32814787 </i>
    <i name="e_wo_entrp">   -135.32197249 </i>
    <i name="e_0_energy">   -135.32506018 </i>
   </energy>
  </scstep>
  <scstep>
   <time name="dav">    1.81    1.81</time>
   <time name="total">    2.11    2.13</time>
   <energy>
    <i name="e_fr_energy">   -135.36871411 </i>
    <i name="e_wo_entrp">   -135.36269433 </i>
    <i name="e_0_energy">   -135.36570422 </i>
   </energy>
  </scstep>
  <scstep>
   <time name="dav">    1.88    1.88</time>
   <time name="total">    2.19    2.20</time>
   <energy>
    <i name="e_fr_energy">   -135.47704306 </i>
    <i name="e_wo_entrp">   -135.47106839 </i>
    <i name="e_0_energy">   -135.47405572 </i>
   </energy>
  </scstep>
  <scstep>
   <time name="dav">    1.79    1.80</time>
   <time name="total">    2.10    2.12</time>
   <energy>
    <i name="e_fr_energy">   -135.50335491 </i>
    <i name="e_wo_entrp">   -135.49769898 </i>
    <i name="e_0_energy">   -135.50052695 </i>
   </energy>
  </scstep>
  <scstep>
   <time name="dav">    1.97    1.98</time>
   <time name="total">    2.27    2.29</time>
   <energy>
    <i name="e_fr_energy">   -135.53877572 </i>
    <i name="e_wo_entrp">   -135.53280989 </i>
    <i name="e_0_energy">   -135.53579280 </i>
   </energy>
  </scstep>
  <scstep>
   <time name="dav">    1.80    1.81</time>
   <time name="total">    2.11    2.12</time>
   <energy>
    <i name="e_fr_energy">   -135.55743319 </i>
    <i name="e_wo_entrp">   -135.55177953 </i>
    <i name="e_0_energy">   -135.55460636 </i>
   </energy>
  </scstep>
  <scstep>
   <time name="dav">    1.96    1.96</time>
   <time name="total">    2.26    2.28</time>
   <energy>
    <i name="e_fr_energy">   -135.57510679 </i>
    <i name="e_wo_entrp">   -135.56933643 </i>
    <i name="e_0_energy">   -135.57222161 </i>
   </energy>
  </scstep>
  <scstep>
   <time name="dav">    1.83    1.83</time>
   <time name="total">    2.14    2.16</time>
   <energy>
    <i name="e_fr_energy">   -135.57954818 </i>
    <i name="e_wo_entrp">   -135.57378947 </i>
    <i name="e_0_energy">   -135.57666883 </i>
   </energy>
  </scstep>
  <scstep>
   <time name="dav">    1.59    1.59</time>
   <time name="total">    1.90    1.91</time>
   <energy>
    <i name="e_fr_energy">   -135.58309182 </i>
    <i name="e_wo_entrp">   -135.57730458 </i>
    <i name="e_0_energy">   -135.58019820 </i>
   </energy>
  </scstep>
  <scstep>
   <time name="dav">    1.34    1.35</time>
   <time name="total">    1.65    1.67</time>
   <energy>
    <i name="e_fr_energy">   -135.58436514 </i>
    <i name="e_wo_entrp">   -135.57858045 </i>
    <i name="e_0_energy">   -135.58147280 </i>
   </energy>
  </scstep>
  <scstep>
   <time name="dav">    1.39    1.39</time>
   <time name="total">    1.69    1.71</time>
   <energy>
    <i name="e_fr_energy">   -135.58626871 </i>
    <i name="e_wo_entrp">   -135.58050925 </i>
    <i name="e_0_energy">   -135.58338898 </i>
   </energy>
  </scstep>
  <scstep>
   <time name="dav">    1.25    1.25</time>
   <time name="total">    1.56    1.58</time>
   <energy>
    <i name="e_fr_energy">   -135.58684303 </i>
    <i name="e_wo_entrp">   -135.58109287 </i>
    <i name="e_0_energy">   -135.58396795 </i>
   </energy>
  </scstep>
  <scstep>
   <time name="dav">    1.25    1.25</time>
   <time name="total">    1.55    1.57</time>
   <energy>
    <i name="e_fr_energy">   -135.58786756 </i>
    <i name="e_wo_entrp">   -135.58212869 </i>
    <i name="e_0_energy">   -135.58499813 </i>
   </energy>
  </scstep>
  <scstep>
   <time name="dav">    1.27    1.27</time>
   <time name="total">    1.58    1.59</time>
   <energy>
    <i name="e_fr_energy">   -135.58823756 </i>
    <i name="e_wo_entrp">   -135.58250561 </i>
    <i name="e_0_energy">   -135.58537159 </i>
   </energy>
  </scstep>
  <scstep>
   <time name="dav">    1.21    1.21</time>
   <time name="total">    1.51    1.53</time>
   <energy>
    <i name="e_fr_energy">   -135.58890931 </i>
    <i name="e_wo_entrp">   -135.58314914 </i>
    <i name="e_0_energy">   -135.58602923 </i>
   </energy>
  </scstep>
  <scstep>
   <time name="dav">    1.29    1.29</time>
   <time name="total">    1.59    1.61</time>
   <energy>
    <i name="e_fr_energy">   -135.58917842 </i>
    <i name="e_wo_entrp">   -135.58345034 </i>
    <i name="e_0_energy">   -135.58631438 </i>
   </energy>
  </scstep>
  <scstep>
   <time name="dav">    1.21    1.21</time>
   <time name="total">    1.51    1.53</time>
   <energy>
    <i name="e_fr_energy">   -135.58977545 </i>
    <i name="e_wo_entrp">   -135.58402037 </i>
    <i name="e_0_energy">   -135.58689791 </i>
   </energy>
  </scstep>
  <scstep>
   <time name="dav">    1.21    1.21</time>
   <time name="total">    1.52    1.53</time>
   <energy>
    <i name="e_fr_energy">   -135.58992349 </i>
    <i name="e_wo_entrp">   -135.58418336 </i>
    <i name="e_0_energy">   -135.58705342 </i>
   </energy>
  </scstep>
  <scstep>
   <time name="dav">    1.20    1.20</time>
   <time name="total">    1.50    1.51</time>
   <energy>
    <i name="e_fr_energy">   -135.59013194 </i>
    <i name="e_wo_entrp">   -135.58438779 </i>
    <i name="e_0_energy">   -135.58725986 </i>
   </energy>
  </scstep>
  <scstep>
   <time name="dav">    1.22    1.22</time>
   <time name="total">    1.53    1.54</time>
   <energy>
    <i name="e_fr_energy">   -135.59047508 </i>
    <i name="e_wo_entrp">   -135.58473029 </i>
    <i name="e_0_energy">   -135.58760269 </i>
   </energy>
  </scstep>
  <scstep>
   <time name="dav">    1.24    1.24</time>
   <time name="total">    1.55    1.56</time>
   <energy>
    <i name="e_fr_energy">   -135.59066948 </i>
    <i name="e_wo_entrp">   -135.58492522 </i>
    <i name="e_0_energy">   -135.58779735 </i>
   </energy>
  </scstep>
  <scstep>
   <time name="dav">    1.22    1.22</time>
   <time name="total">    1.44    1.45</time>
   <energy>
    <i name="alphaZ">    113.16553179 </i>
    <i name="ewald">  56800.32436098 </i>
    <i name="hartreedc"> -86721.34389687 </i>
    <i name="XCdc">    916.56831241 </i>
    <i name="pawpsdc">  33307.57149251 </i>
    <i name="pawaedc"> -35355.87995350 </i>
    <i name="eentropy">     -0.00573834 </i>
    <i name="bandstr">  -1550.86317429 </i>
    <i name="atom">  32354.87237921 </i>
    <i name="e_fr_energy">   -135.59068610 </i>
    <i name="e_wo_entrp">   -135.58494775 </i>
    <i name="e_0_energy">   -135.58781692 </i>
   </energy>
  </scstep>
  <structure>
   <crystal>
    <varray name="basis" >
     <v>      16.00000000       0.00000000       0.00000000 </v>
     <v>       0.00000000      16.00000000       0.00000000 </v>
     <v>       0.00000000       0.00000000      16.00000000 </v>
    </varray>
    <i name="volume">   4096.00000000 </i>
    <varray name="rec_basis" >
     <v>       0.06250000       0.00000000       0.00000000 </v>
     <v>       0.00000000       0.06250000       0.00000000 </v>
     <v>       0.00000000       0.00000000       0.06250000 </v>
    </varray>
   </crystal>
   <varray name="positions" >
    <v>       0.24519860       0.46644179       0.39361015 </v>
    <v>       0.47572325       0.46498100       0.67899954 </v>
    <v>       0.56542719       0.67870942       0.38850544 </v>
    <v>       0.57151158       0.26480365       0.38532892 </v>
    <v>       0.33790829       0.46730806       0.62462410 </v>
    <v>       0.66091724       0.62039149       0.49096673 </v>
    <v>       0.66274834       0.32558292       0.49161963 </v>
    <v>       0.32902893       0.57548410       0.34758521 </v>
    <v>       0.33265598       0.36074344       0.34589142 </v>
    <v>       0.40193155       0.46945372       0.25367487 </v>
    <v>       0.53678343       0.26342178       0.53248366 </v>
    <v>       0.53206341       0.67754946       0.53404357 </v>
    <v>       0.65614852       0.54989485       0.35848137 </v>
    <v>       0.65907786       0.39771757       0.35888769 </v>
    <v>       0.42388649       0.59459986       0.60035727 </v>
    <v>       0.42696413       0.34229346       0.59552709 </v>
    <v>       0.47030708       0.59470583       0.31099861 </v>
    <v>       0.47352537       0.34469672       0.30790031 </v>
    <v>       0.42806297       0.30071906       0.44421720 </v>
    <v>       0.42298968       0.63651049       0.44663129 </v>
    <v>       0.32215600       0.54318651       0.49681990 </v>
    <v>       0.32418167       0.39224283       0.49454388 </v>
    <v>       0.54419114       0.47086200       0.30544723 </v>
    <v>       0.57285586       0.54765889       0.59441562 </v>
    <v>       0.57382906       0.39636477       0.59010852 </v>
    <v>       0.65832766       0.47347092       0.49140329 </v>
    <v>       0.45299669       0.46977254       0.53620476 </v>
    <v>       0.53727524       0.54742795       0.44153168 </v>
    <v>       0.53866168       0.39396091       0.44004928 </v>
    <v>       0.41332524       0.46913049       0.39488239 </v>
    <v>       0.51491247       0.64166722       0.63073326 </v>
    <v>       0.50634486       0.57564337       0.67288310 </v>
   </varray>
  </structure>
  <varray name="forces" >
   <v>      -0.00739088       0.00272269       0.01055726 </v>
   <v>      -0.01156019       0.22928593       0.04681454 </v>
   <v>       0.01958827      -0.03676017      -0.03757112 </v>
   <v>       0.01378351       0.03337778       0.02393205 </v>
   <v>      -0.05137295      -0.06297010      -0.05924513 </v>
   <v>      -0.04903182      -0.03327771       0.00054760 </v>
   <v>       0.07496968      -0.02070875      -0.02022225 </v>
   <v>       0.00514310       0.00886980       0.00556264 </v>
   <v>       0.00040438      -0.02736335      -0.04929351 </v>
   <v>       0.00600348      -0.01683704       0.03107123 </v>
   <v>      -0.01175112       0.03136416      -0.01541783 </v>
   <v>       0.05262574       0.15029743      -0.20722427 </v>
   <v>       0.01680040      -0.00505235      -0.00530249 </v>
   <v>       0.02248393      -0.01004420       0.01504473 </v>
   <v>       0.06804424       0.01334460       0.25012313 </v>
   <v>      -0.01440888       0.04323430       0.01855646 </v>
   <v>      -0.00033887       0.02257519      -0.08268489 </v>
   <v>      -0.01015898       0.00465893       0.02778119 </v>
   <v>       0.01254752      -0.02236948      -0.04291796 </v>
   <v>      -0.00345473      -0.02269544      -0.00164368 </v>
   <v>       0.00582024       0.03167626       0.04466933 </v>
   <v>      -0.00389857       0.03991292       0.04126862 </v>
   <v>      -0.02114930       0.00275784       0.01681694 </v>
   <v>       0.13514983       0.10819432       0.21213631 </v>
   <v>       0.05729635      -0.12884132      -0.07608796 </v>
   <v>      -0.00084713       0.02418117      -0.01436327 </v>
   <v>      -0.05725125      -0.17349524      -0.14454876 </v>
   <v>      -0.01148625       0.05526507       0.04360837 </v>
   <v>      -0.06058349      -0.02124719      -0.01612813 </v>
   <v>      -0.01427268       0.00458357       0.01767256 </v>
   <v>       0.07822226       0.55137235      -0.31979219 </v>
   <v>      -0.23992584      -0.77601197       0.28628048 </v>
  </varray>
  <varray name="stress" >
   <v>      -0.35525600       0.02449925      -0.11361666 </v>
   <v>       0.02449926      -0.26568041      -0.13169145 </v>
   <v>      -0.11361665      -0.13169146      -0.31828542 </v>
  </varray>
  <energy>
   <i name="e_fr_energy">   -135.59068610 </i>
   <i name="e_wo_entrp">   -135.58494775 </i>
   <i name="e_0_energy">   -135.58781692 </i>
  </energy>
  <time name="totalsc">  120.83  122.08</time>
 </calculation>
 <calculation>
  <scstep>
   <time name="dav">    1.63    1.63</time>
   <time name="total">    1.92    1.93</time>
   <energy>
    <i name="alphaZ">    113.16553179 </i>
    <i name="ewald">  56759.78559248 </i>
    <i name="hartreedc"> -86681.28047401 </i>
    <i name="XCdc">    916.51987080 </i>
    <i name="pawpsdc">  33307.55323988 </i>
    <i name="pawaedc"> -35355.86153223 </i>
    <i name="eentropy">     -0.00524674 </i>
    <i name="bandstr">  -1550.40227381 </i>
    <i name="atom">  32354.87237921 </i>
    <i name="e_fr_energy">   -135.65291261 </i>
    <i name="e_wo_entrp">   -135.64766587 </i>
    <i name="e_0_energy">   -135.65028924 </i>
   </energy>
  </scstep>
  <scstep>
   <time name="dav">    2.12    2.13</time>
   <time name="total">    2.42    2.44</time>
   <energy>
    <i name="e_fr_energy">   -135.68186798 </i>
    <i name="e_wo_entrp">   -135.67530001 </i>
    <i name="e_0_energy">   -135.67858400 </i>
   </energy>
  </scstep>
  <scstep>
   <time name="dav">    1.71    1.71</time>
   <time name="total">    2.01    2.03</time>
   <energy>
    <i name="e_fr_energy">   -135.65943756 </i>
    <i name="e_wo_entrp">   -135.65480753 </i>
    <i name="e_0_energy">   -135.65712254 </i>
   </energy>
  </scstep>
  <scstep>
   <time name="dav">    2.02    2.02</time>
   <time name="total">    2.31    2.33</time>
   <energy>
    <i name="e_fr_energy">   -135.66530178 </i>
    <i name="e_wo_entrp">   -135.65983763 </i>
    <i name="e_0_energy">   -135.66256970 </i>
   </energy>
  </scstep>
  <scstep>
   <time name="dav">    1.80    1.80</time>
   <time name="total">    2.09    2.11</time>
   <energy>
    <i name="e_fr_energy">   -135.66116847 </i>
    <i name="e_wo_entrp">   -135.65590998 </i>
    <i name="e_0_energy">   -135.65853922 </i>
   </energy>
  </scstep>
  <scstep>
   <time name="dav">    1.76    1.77</time>
   <time name="total">    2.06    2.08</time>
   <energy>
    <i name="e_fr_energy">   -135.65996433 </i>
    <i name="e_wo_entrp">   -135.65476593 </i>
    <i name="e_0_energy">   -135.65736513 </i>
   </energy>
  </scstep>
  <scstep>
   <time name="dav">    1.91    1.92</time>
   <time name="total">    2.22    2.23</time>
   <energy>
    <i name="e_fr_energy">   -135.66113340 </i>
    <i name="e_wo_entrp">   -135.65602145 </i>
    <i name="e_0_energy">   -135.65857743 </i>
   </energy>
  </scstep>
  <scstep>
   <time name="dav">    1.75    1.75</time>
   <time name="total">    2.04    2.06</time>
   <energy>
    <i name="e_fr_energy">   -135.66018489 </i>
    <i name="e_wo_entrp">   -135.65473046 </i>
    <i name="e_0_energy">   -135.65745768 </i>
   </energy>
  </scstep>
  <scstep>
   <time name="dav">    1.76    1.77</time>
   <time name="total">    2.06    2.08</time>
   <energy>
    <i name="e_fr_energy">   -135.65982870 </i>
    <i name="e_wo_entrp">   -135.65455870 </i>
    <i name="e_0_energy">   -135.65719370 </i>
   </energy>
  </scstep>
  <scstep>
   <time name="dav">    1.71    1.71</time>
   <time name="total">    2.00    2.02</time>
   <energy>
    <i name="e_fr_energy">   -135.66021995 </i>
    <i name="e_wo_entrp">   -135.65465427 </i>
    <i name="e_0_energy">   -135.65743711 </i>
   </energy>
  </scstep>
  <scstep>
   <time name="dav">    1.66    1.66</time>
   <time name="total">    1.96    1.97</time>
   <energy>
    <i name="e_fr_energy">   -135.65988602 </i>
    <i name="e_wo_entrp">   -135.65467558 </i>
    <i name="e_0_energy">   -135.65728080 </i>
   </energy>
  </scstep>
  <scstep>
   <time name="dav">    1.22    1.22</time>
   <time name="total">    1.45    1.46</time>
   <energy>
    <i name="alphaZ">    113.16553179 </i>
    <i name="ewald">  56759.78559248 </i>
    <i name="hartreedc"> -86680.52375107 </i>
    <i name="XCdc">    916.51249595 </i>
    <i name="pawpsdc">  33300.13905875 </i>
    <i name="pawaedc"> -35348.39826773 </i>
    <i name="eentropy">     -0.00520439 </i>
    <i name="bandstr">  -1551.20773626 </i>
    <i name="atom">  32354.87237921 </i>
    <i name="e_fr_energy">   -135.65990127 </i>
    <i name="e_wo_entrp">   -135.65469688 </i>
    <i name="e_0_energy">   -135.65729907 </i>
   </energy>
  </scstep>
  <structure>
   <crystal>
    <varray name="basis" >
     <v>      16.00000000       0.00000000       0.00000000 </v>
     <v>       0.00000000      16.00000000       0.00000000 </v>
     <v>       0.00000000       0.00000000      16.00000000 </v>
    </varray>
    <i name="volume">   4096.00000000 </i>
    <varray name="rec_basis" >
     <v>       0.06250000       0.00000000       0.00000000 </v>
     <v>       0.00000000       0.06250000       0.00000000 </v>
     <v>       0.00000000       0.00000000       0.06250000 </v>
    </varray>
   </crystal>
   <varray name="positions" >
    <v>       0.24517631       0.46644999       0.39364199 </v>
    <v>       0.47568839       0.46567233       0.67914069 </v>
    <v>       0.56548625       0.67859858       0.38839215 </v>
    <v>       0.57155314       0.26490429       0.38540108 </v>
    <v>       0.33775340       0.46711820       0.62444547 </v>
    <v>       0.66076940       0.62029116       0.49096838 </v>
    <v>       0.66297438       0.32552048       0.49155865 </v>
    <v>       0.32904444       0.57551085       0.34760199 </v>
    <v>       0.33265720       0.36066093       0.34574279 </v>
    <v>       0.40194965       0.46940296       0.25376855 </v>
    <v>       0.53674800       0.26351635       0.53243717 </v>
    <v>       0.53222209       0.67800264       0.53341875 </v>
    <v>       0.65619917       0.54987962       0.35846538 </v>
    <v>       0.65914566       0.39768729       0.35893305 </v>
    <v>       0.42409166       0.59464010       0.60111143 </v>
    <v>       0.42692069       0.34242382       0.59558304 </v>
    <v>       0.47030606       0.59477390       0.31074930 </v>
    <v>       0.47349474       0.34471077       0.30798407 </v>
    <v>       0.42810081       0.30065161       0.44408779 </v>
    <v>       0.42297926       0.63644205       0.44662633 </v>
    <v>       0.32217355       0.54328202       0.49695458 </v>
    <v>       0.32416992       0.39236317       0.49466831 </v>
    <v>       0.54412737       0.47087031       0.30549794 </v>
    <v>       0.57326335       0.54798512       0.59505524 </v>
    <v>       0.57400182       0.39597629       0.58987910 </v>
    <v>       0.65832511       0.47354383       0.49135999 </v>
    <v>       0.45282407       0.46924943       0.53576892 </v>
    <v>       0.53724061       0.54759458       0.44166317 </v>
    <v>       0.53847901       0.39389684       0.44000066 </v>
    <v>       0.41328221       0.46914431       0.39493567 </v>
    <v>       0.51514832       0.64332970       0.62976903 </v>
    <v>       0.50562145       0.57330356       0.67374628 </v>
   </varray>
  </structure>
  <varray name="forces" >
   <v>       0.00809228      -0.00004049       0.00982367 </v>
   <v>      -0.00253416       0.17361939      -0.00025279 </v>
   <v>       0.02710253      -0.01559524      -0.07815480 </v>
   <v>       0.02032941       0.02028985       0.01198683 </v>
   <v>      -0.01949198      -0.03634601      -0.03810011 </v>
   <v>      -0.02180407      -0.02295339       0.00428831 </v>
   <v>       0.06610114      -0.01604701      -0.02670734 </v>
   <v>       0.00339351       0.00501569       0.00708707 </v>
   <v>      -0.01288113      -0.01186004      -0.03079687 </v>
   <v>      -0.00287630      -0.01416083       0.01821167 </v>
   <v>      -0.00681575       0.01609560      -0.01208222 </v>
   <v>       0.01721469       0.08713574      -0.11797690 </v>
   <v>       0.00480299      -0.01116668      -0.00752351 </v>
   <v>       0.00502588      -0.00112635       0.01732719 </v>
   <v>       0.13623026      -0.02594382       0.16353637 </v>
   <v>      -0.01353807       0.00099669       0.03061218 </v>
   <v>      -0.00245071       0.01674364      -0.05609527 </v>
   <v>      -0.00326010      -0.00116190       0.01899441 </v>
   <v>      -0.01517499      -0.02171839      -0.02573713 </v>
   <v>      -0.00524412      -0.01853670       0.00114184 </v>
   <v>       0.01182165       0.03143655       0.03766202 </v>
   <v>      -0.01723482       0.01171496       0.00712785 </v>
   <v>      -0.00244874       0.01007623       0.02408702 </v>
   <v>       0.06226948       0.09716279       0.13229256 </v>
   <v>       0.00947137      -0.03076303      -0.04042013 </v>
   <v>      -0.02056251       0.00511129      -0.00355985 </v>
   <v>      -0.01544729      -0.02461118      -0.00432285 </v>
   <v>      -0.01293807       0.00514566       0.04960379 </v>
   <v>      -0.00102867      -0.00342268      -0.02839938 </v>
   <v>      -0.02340463       0.01180706      -0.01636833 </v>
   <v>       0.04897857       0.50522857      -0.32363692 </v>
   <v>      -0.22169768      -0.74212598       0.27635160 </v>
  </varray>
  <varray name="stress" >
   <v>      -0.52757383       0.03423321      -0.11808833 </v>
   <v>       0.03423321      -0.39090087      -0.16653612 </v>
   <v>      -0.11808831      -0.16653613      -0.42219441 </v>
  </varray>
  <energy>
   <i name="e_fr_energy">   -135.65990127 </i>
   <i name="e_wo_entrp">   -135.65469688 </i>
   <i name="e_0_energy">   -135.65729907 </i>
  </energy>
  <time name="totalsc">   26.64   26.85</time>
 </calculation>
 <calculation>
  <scstep>
   <time name="dav">    1.63    1.64</time>
   <time name="total">    1.93    1.93</time>
   <energy>
    <i name="alphaZ">    113.16553179 </i>
    <i name="ewald">  56638.84860588 </i>
    <i name="hartreedc"> -86560.33058902 </i>
    <i name="XCdc">    916.40766674 </i>
    <i name="pawpsdc">  33300.07011296 </i>
    <i name="pawaedc"> -35348.32611429 </i>
    <i name="eentropy">     -0.00402161 </i>
    <i name="bandstr">  -1550.41523129 </i>
    <i name="atom">  32354.87237921 </i>
    <i name="e_fr_energy">   -135.71165962 </i>
    <i name="e_wo_entrp">   -135.70763801 </i>
    <i name="e_0_energy">   -135.70964881 </i>
   </energy>
  </scstep>
  <scstep>
   <time name="dav">    2.13    2.13</time>
   <time name="total">    2.43    2.45</time>
   <energy>
    <i name="e_fr_energy">   -135.99470209 </i>
    <i name="e_wo_entrp">   -135.98598337 </i>
    <i name="e_0_energy">   -135.99034273 </i>
   </energy>
  </scstep>
  <scstep>
   <time name="dav">    1.70    1.71</time>
   <time name="total">    2.00    2.02</time>
   <energy>
    <i name="e_fr_energy">   -135.77959733 </i>
    <i name="e_wo_entrp">   -135.77662713 </i>
    <i name="e_0_energy">   -135.77811223 </i>
   </energy>
  </scstep>
  <scstep>
   <time name="dav">    2.01    2.02</time>
   <time name="total">    2.31    2.33</time>
   <energy>
    <i name="e_fr_energy">   -135.82407754 </i>
    <i name="e_wo_entrp">   -135.81938449 </i>
    <i name="e_0_energy">   -135.82173101 </i>
   </energy>
  </scstep>
  <scstep>
   <time name="dav">    1.74    1.74</time>
   <time name="total">    2.05    2.06</time>
   <energy>
    <i name="e_fr_energy">   -135.78752668 </i>
    <i name="e_wo_entrp">   -135.78280636 </i>
    <i name="e_0_energy">   -135.78516652 </i>
   </energy>
  </scstep>
  <scstep>
   <time name="dav">    1.74    1.74</time>
   <time name="total">    2.03    2.05</time>
   <energy>
    <i name="e_fr_energy">   -135.77717196 </i>
    <i name="e_wo_entrp">   -135.77328336 </i>
    <i name="e_0_energy">   -135.77522766 </i>
   </energy>
  </scstep>
  <scstep>
   <time name="dav">    1.91    1.91</time>
   <time name="total">    2.21    2.23</time>
   <energy>
    <i name="e_fr_energy">   -135.78707230 </i>
    <i name="e_wo_entrp">   -135.78229562 </i>
    <i name="e_0_energy">   -135.78468396 </i>
   </energy>
  </scstep>
  <scstep>
   <time name="dav">    1.81    1.81</time>
   <time name="total">    2.11    2.13</time>
   <energy>
    <i name="e_fr_energy">   -135.77855496 </i>
    <i name="e_wo_entrp">   -135.77475681 </i>
    <i name="e_0_energy">   -135.77665589 </i>
   </energy>
  </scstep>
  <scstep>
   <time name="dav">    1.81    1.81</time>
   <time name="total">    2.11    2.13</time>
   <energy>
    <i name="e_fr_energy">   -135.77490836 </i>
    <i name="e_wo_entrp">   -135.77072433 </i>
    <i name="e_0_energy">   -135.77281634 </i>
   </energy>
  </scstep>
  <scstep>
   <time name="dav">    1.92    1.92</time>
   <time name="total">    2.22    2.24</time>
   <energy>
    <i name="e_fr_energy">   -135.77873885 </i>
    <i name="e_wo_entrp">   -135.77439629 </i>
    <i name="e_0_energy">   -135.77656757 </i>
   </energy>
  </scstep>
  <scstep>
   <time name="dav">    1.75    1.75</time>
   <time name="total">    2.05    2.07</time>
   <energy>
    <i name="e_fr_energy">   -135.77533025 </i>
    <i name="e_wo_entrp">   -135.77174204 </i>
    <i name="e_0_energy">   -135.77353615 </i>
   </energy>
  </scstep>
  <scstep>
   <time name="dav">    1.83    1.83</time>
   <time name="total">    2.13    2.14</time>
   <energy>
    <i name="e_fr_energy">   -135.77495334 </i>
    <i name="e_wo_entrp">   -135.77095573 </i>
    <i name="e_0_energy">   -135.77295454 </i>
   </energy>
  </scstep>
  <scstep>
   <time name="dav">    1.84    1.85</time>
   <time name="total">    2.15    2.17</time>
   <energy>
    <i name="e_fr_energy">   -135.77602129 </i>
    <i name="e_wo_entrp">   -135.77213528 </i>
    <i name="e_0_energy">   -135.77407829 </i>
   </energy>
  </scstep>
  <scstep>
   <time name="dav">    1.72    1.73</time>
   <time name="total">    2.03    2.04</time>
   <energy>
    <i name="e_fr_energy">   -135.77601677 </i>
    <i name="e_wo_entrp">   -135.77202331 </i>
    <i name="e_0_energy">   -135.77402004 </i>
   </energy>
  </scstep>
  <scstep>
   <time name="dav">    1.46    1.46</time>
   <time name="total">    1.76    1.77</time>
   <energy>
    <i name="e_fr_energy">   -135.77628107 </i>
    <i name="e_wo_entrp">   -135.77242413 </i>
    <i name="e_0_energy">   -135.77435260 </i>
   </energy>
  </scstep>
  <scstep>
   <time name="dav">    1.24    1.24</time>
   <time name="total">    1.54    1.55</time>
   <energy>
    <i name="e_fr_energy">   -135.77684106 </i>
    <i name="e_wo_entrp">   -135.77287770 </i>
    <i name="e_0_energy">   -135.77485938 </i>
   </energy>
  </scstep>
  <scstep>
   <time name="dav">    1.28    1.29</time>
   <time name="total">    1.59    1.60</time>
   <energy>
    <i name="e_fr_energy">   -135.77728463 </i>
    <i name="e_wo_entrp">   -135.77341579 </i>
    <i name="e_0_energy">   -135.77535021 </i>
   </energy>
  </scstep>
  <scstep>
   <time name="dav">    1.25    1.25</time>
   <time name="total">    1.56    1.57</time>
   <energy>
    <i name="e_fr_energy">   -135.77755853 </i>
    <i name="e_wo_entrp">   -135.77366217 </i>
    <i name="e_0_energy">   -135.77561035 </i>
   </energy>
  </scstep>
  <scstep>
   <time name="dav">    1.25    1.25</time>
   <time name="total">    1.54    1.56</time>
   <energy>
    <i name="e_fr_energy">   -135.77814939 </i>
    <i name="e_wo_entrp">   -135.77419379 </i>
    <i name="e_0_energy">   -135.77617159 </i>
   </energy>
  </scstep>
  <scstep>
   <time name="dav">    1.26    1.26</time>
   <time name="total">    1.56    1.57</time>
   <energy>
    <i name="e_fr_energy">   -135.77835193 </i>
    <i name="e_wo_entrp">   -135.77447855 </i>
    <i name="e_0_energy">   -135.77641524 </i>
   </energy>
  </scstep>
  <scstep>
   <time name="dav">    1.24    1.24</time>
   <time name="total">    1.53    1.55</time>
   <energy>
    <i name="e_fr_energy">   -135.77865175 </i>
    <i name="e_wo_entrp">   -135.77477167 </i>
    <i name="e_0_energy">   -135.77671171 </i>
   </energy>
  </scstep>
  <scstep>
   <time name="dav">    1.23    1.23</time>
   <time name="total">    1.53    1.55</time>
   <energy>
    <i name="e_fr_energy">   -135.77890119 </i>
    <i name="e_wo_entrp">   -135.77501292 </i>
    <i name="e_0_energy">   -135.77695705 </i>
   </energy>
  </scstep>
  <scstep>
   <time name="dav">    1.21    1.21</time>
   <time name="total">    1.51    1.52</time>
   <energy>
    <i name="e_fr_energy">   -135.77902662 </i>
    <i name="e_wo_entrp">   -135.77515707 </i>
    <i name="e_0_energy">   -135.77709185 </i>
   </energy>
  </scstep>
  <scstep>
   <time name="dav">    1.25    1.26</time>
   <time name="total">    1.56    1.58</time>
   <energy>
    <i name="e_fr_energy">   -135.77928465 </i>
    <i name="e_wo_entrp">   -135.77540919 </i>
    <i name="e_0_energy">   -135.77734692 </i>
   </energy>
  </scstep>
  <scstep>
   <time name="dav">    1.21    1.21</time>
   <time name="total">    1.42    1.44</time>
   <energy>
    <i name="alphaZ">    113.16553179 </i>
    <i name="ewald">  56638.84860588 </i>
    <i name="hartreedc"> -86558.45396609 </i>
    <i name="XCdc">    916.40330784 </i>
    <i name="pawpsdc">  33285.70718789 </i>
    <i name="pawaedc"> -35333.85410055 </i>
    <i name="eentropy">     -0.00387682 </i>
    <i name="bandstr">  -1552.46444087 </i>
    <i name="atom">  32354.87237921 </i>
    <i name="e_fr_energy">   -135.77937169 </i>
    <i name="e_wo_entrp">   -135.77549488 </i>
    <i name="e_0_energy">   -135.77743328 </i>
   </energy>
  </scstep>
  <structure>
   <crystal>
    <varray name="basis" >
     <v>      16.00000000       0.00000000       0.00000000 </v>
     <v>       0.00000000      16.00000000       0.00000000 </v>
     <v>       0.00000000       0.00000000      16.00000000 </v>
    </varray>
    <i name="volume">   4096.00000000 </i>
    <varray name="rec_basis" >
     <v>       0.06250000       0.00000000       0.00000000 </v>
     <v>       0.00000000       0.06250000       0.00000000 </v>
     <v>       0.00000000       0.00000000       0.06250000 </v>
    </varray>
   </crystal>
   <varray name="positions" >
    <v>       0.24510946       0.46647462       0.39373748 </v>
    <v>       0.47558383       0.46774634       0.67956415 </v>
    <v>       0.56566344       0.67826607       0.38805231 </v>
    <v>       0.57167782       0.26520621       0.38561756 </v>
    <v>       0.33728870       0.46654860       0.62390957 </v>
    <v>       0.66032588       0.61999014       0.49097333 </v>
    <v>       0.66365252       0.32533316       0.49137573 </v>
    <v>       0.32909096       0.57559108       0.34765230 </v>
    <v>       0.33266086       0.36041342       0.34529690 </v>
    <v>       0.40200395       0.46925066       0.25404961 </v>
    <v>       0.53664170       0.26380005       0.53229771 </v>
    <v>       0.53269811       0.67936215       0.53154431 </v>
    <v>       0.65635114       0.54983392       0.35841741 </v>
    <v>       0.65934904       0.39759643       0.35906914 </v>
    <v>       0.42470715       0.59476081       0.60337392 </v>
    <v>       0.42679035       0.34281490       0.59575089 </v>
    <v>       0.47030299       0.59497811       0.31000138 </v>
    <v>       0.47340284       0.34475291       0.30823537 </v>
    <v>       0.42821430       0.30044926       0.44369958 </v>
    <v>       0.42294801       0.63623676       0.44661146 </v>
    <v>       0.32222620       0.54356855       0.49735864 </v>
    <v>       0.32413465       0.39272421       0.49504161 </v>
    <v>       0.54393606       0.47089526       0.30565006 </v>
    <v>       0.57448585       0.54896379       0.59697412 </v>
    <v>       0.57452009       0.39481086       0.58919085 </v>
    <v>       0.65831744       0.47376256       0.49123006 </v>
    <v>       0.45230620       0.46768008       0.53446140 </v>
    <v>       0.53713671       0.54809448       0.44205763 </v>
    <v>       0.53793100       0.39370465       0.43985477 </v>
    <v>       0.41315311       0.46918577       0.39509553 </v>
    <v>       0.51585588       0.64831713       0.62687635 </v>
    <v>       0.50345120       0.56628415       0.67633583 </v>
   </varray>
  </structure>
  <varray name="forces" >
   <v>       0.06366226      -0.00361906       0.00799036 </v>
   <v>      -0.05387522      -0.27294199      -0.12753497 </v>
   <v>       0.04852191       0.04398976      -0.20620875 </v>
   <v>       0.04045901      -0.02270898      -0.02528517 </v>
   <v>       0.07961713       0.04774077       0.03865668 </v>
   <v>       0.07198036       0.02693657       0.02227075 </v>
   <v>       0.03870970      -0.00720659      -0.04866323 </v>
   <v>      -0.00108875      -0.00393316       0.00983647 </v>
   <v>      -0.05069115       0.03648951       0.03090329 </v>
   <v>      -0.02864470      -0.00310363      -0.01891883 </v>
   <v>       0.00523688      -0.03862985      -0.00112775 </v>
   <v>      -0.07638533      -0.06858133       0.08961266 </v>
   <v>      -0.03824183      -0.03139966      -0.00750984 </v>
   <v>      -0.04595452       0.02096896       0.02052967 </v>
   <v>       0.26635297      -0.10019475      -0.14788479 </v>
   <v>      -0.00957989      -0.13110203       0.06395335 </v>
   <v>      -0.01282549      -0.00501359       0.03482852 </v>
   <v>       0.02005214      -0.02152305      -0.01292003 </v>
   <v>      -0.10045958      -0.02592302       0.02420372 </v>
   <v>      -0.01269534       0.00444376       0.00592585 </v>
   <v>       0.03336562       0.02662390       0.01185822 </v>
   <v>      -0.06027029      -0.07865987      -0.10010746 </v>
   <v>       0.04940704       0.03149898       0.04168068 </v>
   <v>      -0.12075395       0.04756332      -0.14964718 </v>
   <v>      -0.11432698       0.25007673       0.07979471 </v>
   <v>      -0.06978016      -0.05841669       0.03472871 </v>
   <v>       0.10907246       0.42030454       0.41610890 </v>
   <v>      -0.02803652      -0.15395739       0.06696766 </v>
   <v>       0.18230224       0.05108490      -0.06582300 </v>
   <v>      -0.05097943       0.04045807      -0.13245538 </v>
   <v>      -0.04407688       0.33870059      -0.21728407 </v>
   <v>      -0.09007370      -0.35996571       0.26152024 </v>
  </varray>
  <varray name="stress" >
   <v>      -0.78928396       0.08459818      -0.09128418 </v>
   <v>       0.08459818      -0.45720711      -0.31552211 </v>
   <v>      -0.09128417      -0.31552212      -0.42179269 </v>
  </varray>
  <energy>
   <i name="e_fr_energy">   -135.77937169 </i>
   <i name="e_wo_entrp">   -135.77549488 </i>
   <i name="e_0_energy">   -135.77743328 </i>
  </energy>
  <time name="totalsc">   48.97   49.37</time>
 </calculation>
 <calculation>
  <scstep>
   <time name="dav">    1.63    1.63</time>
   <time name="total">    1.94    1.94</time>
   <energy>
    <i name="alphaZ">    113.16553179 </i>
    <i name="ewald">  56622.78653136 </i>
    <i name="hartreedc"> -86542.17968178 </i>
    <i name="XCdc">    916.40683574 </i>
    <i name="pawpsdc">  33285.70156132 </i>
    <i name="pawaedc"> -35333.84874582 </i>
    <i name="eentropy">     -0.00322173 </i>
    <i name="bandstr">  -1552.72322550 </i>
    <i name="atom">  32354.87237921 </i>
    <i name="e_fr_energy">   -135.82203542 </i>
    <i name="e_wo_entrp">   -135.81881368 </i>
    <i name="e_0_energy">   -135.82042455 </i>
   </energy>
  </scstep>
  <scstep>
   <time name="dav">    2.01    2.02</time>
   <time name="total">    2.33    2.35</time>
   <energy>
    <i name="e_fr_energy">   -135.89817306 </i>
    <i name="e_wo_entrp">   -135.89281304 </i>
    <i name="e_0_energy">   -135.89549305 </i>
   </energy>
  </scstep>
  <scstep>
   <time name="dav">    1.77    1.78</time>
   <time name="total">    2.07    2.09</time>
   <energy>
    <i name="e_fr_energy">   -135.82986806 </i>
    <i name="e_wo_entrp">   -135.82619424 </i>
    <i name="e_0_energy">   -135.82803115 </i>
   </energy>
  </scstep>
  <scstep>
   <time name="dav">    2.04    2.04</time>
   <time name="total">    2.33    2.35</time>
   <energy>
    <i name="e_fr_energy">   -135.84085124 </i>
    <i name="e_wo_entrp">   -135.83812348 </i>
    <i name="e_0_energy">   -135.83948736 </i>
   </energy>
  </scstep>
  <scstep>
   <time name="dav">    1.78    1.78</time>
   <time name="total">    2.07    2.09</time>
   <energy>
    <i name="e_fr_energy">   -135.83814036 </i>
    <i name="e_wo_entrp">   -135.83448777 </i>
    <i name="e_0_energy">   -135.83631407 </i>
   </energy>
  </scstep>
  <scstep>
   <time name="dav">    1.71    1.72</time>
   <time name="total">    2.01    2.03</time>
   <energy>
    <i name="e_fr_energy">   -135.83401956 </i>
    <i name="e_wo_entrp">   -135.83093885 </i>
    <i name="e_0_energy">   -135.83247921 </i>
   </energy>
  </scstep>
  <scstep>
   <time name="dav">    1.91    1.92</time>
   <time name="total">    2.21    2.23</time>
   <energy>
    <i name="e_fr_energy">   -135.83619681 </i>
    <i name="e_wo_entrp">   -135.83290435 </i>
    <i name="e_0_energy">   -135.83455058 </i>
   </energy>
  </scstep>
  <scstep>
   <time name="dav">    1.75    1.76</time>
   <time name="total">    2.05    2.07</time>
   <energy>
    <i name="e_fr_energy">   -135.83605585 </i>
    <i name="e_wo_entrp">   -135.83332574 </i>
    <i name="e_0_energy">   -135.83469079 </i>
   </energy>
  </scstep>
  <scstep>
   <time name="dav">    1.72    1.73</time>
   <time name="total">    2.03    2.05</time>
   <energy>
    <i name="e_fr_energy">   -135.83407705 </i>
    <i name="e_wo_entrp">   -135.83097719 </i>
    <i name="e_0_energy">   -135.83252712 </i>
   </energy>
  </scstep>
  <scstep>
   <time name="dav">    1.84    1.85</time>
   <time name="total">    2.14    2.16</time>
   <energy>
    <i name="e_fr_energy">   -135.83490177 </i>
    <i name="e_wo_entrp">   -135.83148822 </i>
    <i name="e_0_energy">   -135.83319500 </i>
   </energy>
  </scstep>
  <scstep>
   <time name="dav">    1.78    1.78</time>
   <time name="total">    2.09    2.10</time>
   <energy>
    <i name="e_fr_energy">   -135.83466821 </i>
    <i name="e_wo_entrp">   -135.83169492 </i>
    <i name="e_0_energy">   -135.83318156 </i>
   </energy>
  </scstep>
  <scstep>
   <time name="dav">    1.55    1.55</time>
   <time name="total">    1.85    1.87</time>
   <energy>
    <i name="e_fr_energy">   -135.83455196 </i>
    <i name="e_wo_entrp">   -135.83138705 </i>
    <i name="e_0_energy">   -135.83296950 </i>
   </energy>
  </scstep>
  <scstep>
   <time name="dav">    1.25    1.25</time>
   <time name="total">    1.55    1.57</time>
   <energy>
    <i name="e_fr_energy">   -135.83475910 </i>
    <i name="e_wo_entrp">   -135.83150358 </i>
    <i name="e_0_energy">   -135.83313134 </i>
   </energy>
  </scstep>
  <scstep>
   <time name="dav">    1.23    1.23</time>
   <time name="total">    1.45    1.47</time>
   <energy>
    <i name="alphaZ">    113.16553179 </i>
    <i name="ewald">  56622.78653136 </i>
    <i name="hartreedc"> -86541.73001491 </i>
    <i name="XCdc">    916.40683416 </i>
    <i name="pawpsdc">  33289.54567956 </i>
    <i name="pawaedc"> -35337.73487620 </i>
    <i name="eentropy">     -0.00313945 </i>
    <i name="bandstr">  -1553.14374557 </i>
    <i name="atom">  32354.87237921 </i>
    <i name="e_fr_energy">   -135.83482004 </i>
    <i name="e_wo_entrp">   -135.83168059 </i>
    <i name="e_0_energy">   -135.83325031 </i>
   </energy>
  </scstep>
  <structure>
   <crystal>
    <varray name="basis" >
     <v>      16.00000000       0.00000000       0.00000000 </v>
     <v>       0.00000000      16.00000000       0.00000000 </v>
     <v>       0.00000000       0.00000000      16.00000000 </v>
    </varray>
    <i name="volume">   4096.00000000 </i>
    <varray name="rec_basis" >
     <v>       0.06250000       0.00000000       0.00000000 </v>
     <v>       0.00000000       0.06250000       0.00000000 </v>
     <v>       0.00000000       0.00000000       0.06250000 </v>
    </varray>
   </crystal>
   <varray name="positions" >
    <v>       0.24529396       0.46646916       0.39378570 </v>
    <v>       0.47538883       0.46738640       0.67926437 </v>
    <v>       0.56585909       0.67832450       0.38732050 </v>
    <v>       0.57183539       0.26520746       0.38559008 </v>
    <v>       0.33742753       0.46656167       0.62390214 </v>
    <v>       0.66044575       0.62000243       0.49104471 </v>
    <v>       0.66393806       0.32526527       0.49117826 </v>
    <v>       0.32909875       0.57559803       0.34769544 </v>
    <v>       0.33250199       0.36046871       0.34528675 </v>
    <v>       0.40192678       0.46920414       0.25405777 </v>
    <v>       0.53663257       0.26374674       0.53226052 </v>
    <v>       0.53257220       0.67947391       0.53137463 </v>
    <v>       0.65626728       0.54972394       0.35838218 </v>
    <v>       0.65925327       0.39764060       0.35916666 </v>
    <v>       0.42569498       0.59447417       0.60345355 </v>
    <v>       0.42672873       0.34249607       0.59599291 </v>
    <v>       0.47026184       0.59501156       0.30993075 </v>
    <v>       0.47344387       0.34469525       0.30825526 </v>
    <v>       0.42792509       0.30031877       0.44368222 </v>
    <v>       0.42290047       0.63620125       0.44662655 </v>
    <v>       0.32234405       0.54372156       0.49749346 </v>
    <v>       0.32393621       0.39256339       0.49481616 </v>
    <v>       0.54404562       0.47100054       0.30581810 </v>
    <v>       0.57440015       0.54934972       0.59696532 </v>
    <v>       0.57428480       0.39531786       0.58927632 </v>
    <v>       0.65809569       0.47363122       0.49130817 </v>
    <v>       0.45252503       0.46862612       0.53545737 </v>
    <v>       0.53702330       0.54772987       0.44236380 </v>
    <v>       0.53837334       0.39381929       0.43961215 </v>
    <v>       0.41296131       0.46932327       0.39471667 </v>
    <v>       0.51588763       0.65058739       0.62549394 </v>
    <v>       0.50264392       0.56345681       0.67778453 </v>
   </varray>
  </structure>
  <varray name="forces" >
   <v>       0.03594150       0.01390659       0.00418838 </v>
   <v>      -0.05165758      -0.40683639       0.00692293 </v>
   <v>       0.03954775      -0.02226388      -0.12522782 </v>
   <v>       0.02530453      -0.02667150      -0.02061747 </v>
   <v>       0.02403169       0.03339999       0.03661276 </v>
   <v>       0.02617447       0.01979996      -0.01524707 </v>
   <v>      -0.00219228      -0.00006307      -0.01327526 </v>
   <v>      -0.01706679       0.01779685       0.00403602 </v>
   <v>      -0.03783330       0.00754173       0.00933918 </v>
   <v>      -0.01404935       0.00071619      -0.04918305 </v>
   <v>       0.00880826       0.01013877      -0.00457092 </v>
   <v>      -0.02460594      -0.02941438      -0.06871068 </v>
   <v>      -0.03414024      -0.01214767       0.01712762 </v>
   <v>       0.00799597       0.01552158      -0.01528156 </v>
   <v>       0.14781529       0.02761254      -0.10518599 </v>
   <v>      -0.00915297      -0.08177502      -0.01526074 </v>
   <v>      -0.00903965      -0.01235074       0.04662144 </v>
   <v>       0.01362899      -0.00441701       0.00969421 </v>
   <v>      -0.02574164       0.01380004       0.02612011 </v>
   <v>       0.01922787       0.00924351      -0.01059290 </v>
   <v>       0.02894758      -0.00010448       0.00694613 </v>
   <v>       0.01687202      -0.02701390      -0.04885935 </v>
   <v>       0.01354670       0.02128655       0.00755061 </v>
   <v>      -0.06361867       0.01748396      -0.12828041 </v>
   <v>      -0.08013747       0.16142493       0.04346229 </v>
   <v>      -0.02295729      -0.03015405       0.04469667 </v>
   <v>       0.06818770       0.17011364       0.09618776 </v>
   <v>      -0.00751211      -0.03623431       0.00280462 </v>
   <v>       0.00097021       0.02813615       0.01886634 </v>
   <v>       0.01408614      -0.00094568       0.07021703 </v>
   <v>      -0.07986802       0.26139256      -0.04951619 </v>
   <v>      -0.01151337      -0.13892347       0.21841531 </v>
  </varray>
  <varray name="stress" >
   <v>      -0.77280851       0.05140308      -0.08043708 </v>
   <v>       0.05140310      -0.36382638      -0.27589417 </v>
   <v>      -0.08043709      -0.27589420      -0.46237808 </v>
  </varray>
  <energy>
   <i name="e_fr_energy">   -135.83482004 </i>
   <i name="e_wo_entrp">   -135.83168059 </i>
   <i name="e_0_energy">   -135.83325031 </i>
  </energy>
  <time name="totalsc">   30.21   30.47</time>
 </calculation>
 <calculation>
  <scstep>
   <time name="dav">    1.65    1.65</time>
   <time name="total">    1.94    1.95</time>
   <energy>
    <i name="alphaZ">    113.16553179 </i>
    <i name="ewald">  56608.39324901 </i>
    <i name="hartreedc"> -86526.97556691 </i>
    <i name="XCdc">    916.41781813 </i>
    <i name="pawpsdc">  33289.53546226 </i>
    <i name="pawaedc"> -35337.72462602 </i>
    <i name="eentropy">     -0.00279075 </i>
    <i name="bandstr">  -1553.52028834 </i>
    <i name="atom">  32354.87237921 </i>
    <i name="e_fr_energy">   -135.83883162 </i>
    <i name="e_wo_entrp">   -135.83604086 </i>
    <i name="e_0_energy">   -135.83743624 </i>
   </energy>
  </scstep>
  <scstep>
   <time name="dav">    2.03    2.04</time>
   <time name="total">    2.33    2.35</time>
   <energy>
    <i name="e_fr_energy">   -135.90506019 </i>
    <i name="e_wo_entrp">   -135.90152439 </i>
[...]
       <r>    -0.0595     0.0000   185.0000 </r>
       <r>    -0.0134     0.0000   185.0000 </r>
       <r>     0.0327     0.0000   185.0000 </r>
       <r>     0.0788     0.0000   185.0000 </r>
       <r>     0.1248     0.0000   185.0000 </r>
       <r>     0.1709     0.0000   185.0000 </r>
       <r>     0.2170     0.0000   185.0000 </r>
       <r>     0.2631     0.0000   185.0000 </r>
       <r>     0.3091     0.0000   185.0000 </r>
       <r>     0.3552     0.0000   185.0000 </r>
       <r>     0.4013     0.0000   185.0000 </r>
       <r>     0.4474     0.0000   185.0000 </r>
       <r>     0.4934     0.0000   185.0000 </r>
       <r>     0.5395     0.0000   185.0000 </r>
       <r>     0.5856     0.0000   185.0000 </r>
       <r>     0.6317     0.0000   185.0000 </r>
       <r>     0.6778     0.0000   185.0000 </r>
       <r>     0.7238     0.0139   185.0006 </r>
       <r>     0.7699    11.1635   185.5150 </r>
       <r>     0.8160    10.5149   185.9995 </r>
       <r>     0.8621     0.0107   186.0000 </r>
       <r>     0.9081     0.0093   186.0004 </r>
       <r>     0.9542    10.9621   186.5055 </r>
       <r>     1.0003    30.8701   187.9279 </r>
       <r>     1.0464    16.0022   188.6653 </r>
       <r>     1.0924    25.2784   189.8300 </r>
       <r>     1.1385    24.6849   190.9674 </r>
       <r>     1.1846     6.0587   191.2466 </r>
       <r>     1.2307    16.2422   191.9950 </r>
       <r>     1.2768     0.8659   192.0349 </r>
       <r>     1.3228    19.7034   192.9427 </r>
       <r>     1.3689    20.1835   193.8727 </r>
       <r>     1.4150     8.5649   194.2674 </r>
       <r>     1.4611    36.4502   195.9469 </r>
       <r>     1.5071     8.6903   196.3473 </r>
       <r>     1.5532    35.0662   197.9630 </r>
       <r>     1.5993     0.8026   198.0000 </r>
       <r>     1.6454     0.0000   198.0000 </r>
       <r>     1.6914     0.0000   198.0000 </r>
       <r>     1.7375     0.0000   198.0000 </r>
       <r>     1.7836     0.0000   198.0000 </r>
       <r>     1.8297     0.0000   198.0000 </r>
       <r>     1.8758     0.0000   198.0000 </r>
       <r>     1.9218     0.0000   198.0000 </r>
       <r>     1.9679     0.0000   198.0000 </r>
       <r>     2.0140     0.0000   198.0000 </r>
       <r>     2.0601     0.0000   198.0000 </r>
       <r>     2.1061     0.0000   198.0000 </r>
       <r>     2.1522     0.0000   198.0000 </r>
       <r>     2.1983     0.0000   198.0000 </r>
      </set>
      <set comment="spin 2">
       <r>   -11.6247     0.0000     0.0000 </r>
       <r>   -11.5787     0.0000     0.0000 </r>
       <r>   -11.5326     0.0000     0.0000 </r>
       <r>   -11.4865     0.0000     0.0000 </r>
       <r>   -11.4404     0.0000     0.0000 </r>
       <r>   -11.3944     0.0000     0.0000 </r>
       <r>   -11.3483     0.0000     0.0000 </r>
       <r>   -11.3022     0.0000     0.0000 </r>
       <r>   -11.2561     0.0000     0.0000 </r>
       <r>   -11.2101     0.0000     0.0000 </r>
       <r>   -11.1640     0.0000     0.0000 </r>
       <r>   -11.1179     0.0000     0.0000 </r>
       <r>   -11.0718     0.0000     0.0000 </r>
       <r>   -11.0257     0.4139     0.0191 </r>
       <r>   -10.9797    18.7269     0.8819 </r>
       <r>   -10.9336     2.5620     1.0000 </r>
       <r>   -10.8875     0.0001     1.0000 </r>
       <r>   -10.8414     0.0000     1.0000 </r>
       <r>   -10.7954     0.0000     1.0000 </r>
       <r>   -10.7493     0.0000     1.0000 </r>
       <r>   -10.7032     0.0000     1.0000 </r>
       <r>   -10.6571     0.0000     1.0000 </r>
       <r>   -10.6111     0.0000     1.0000 </r>
       <r>   -10.5650     0.0000     1.0000 </r>
       <r>   -10.5189     0.0000     1.0000 </r>
       <r>   -10.4728     0.0000     1.0000 </r>
       <r>   -10.4268     0.0000     1.0000 </r>
       <r>   -10.3807     0.0000     1.0000 </r>
       <r>   -10.3346     0.0000     1.0000 </r>
       <r>   -10.2885     0.0000     1.0000 </r>
       <r>   -10.2424     0.0000     1.0000 </r>
       <r>   -10.1964     0.0000     1.0000 </r>
       <r>   -10.1503     0.0000     1.0000 </r>
       <r>   -10.1042     0.0000     1.0000 </r>
       <r>   -10.0581     0.0000     1.0000 </r>
       <r>   -10.0121     0.0000     1.0000 </r>
       <r>    -9.9660     0.3641     1.0168 </r>
       <r>    -9.9199    18.5464     1.8713 </r>
       <r>    -9.8738     2.7923     2.0000 </r>
       <r>    -9.8278     0.0001     2.0000 </r>
       <r>    -9.7817     0.0000     2.0000 </r>
       <r>    -9.7356     0.0000     2.0000 </r>
       <r>    -9.6895     0.0000     2.0000 </r>
       <r>    -9.6434     0.0000     2.0000 </r>
       <r>    -9.5974     0.0000     2.0000 </r>
       <r>    -9.5513     0.0000     2.0000 </r>
       <r>    -9.5052     0.0000     2.0000 </r>
       <r>    -9.4591     1.2914     2.0595 </r>
       <r>    -9.4131    19.4426     2.9554 </r>
       <r>    -9.3670     0.9689     3.0000 </r>
       <r>    -9.3209     0.0000     3.0000 </r>
       <r>    -9.2748     0.0000     3.0000 </r>
       <r>    -9.2288     0.3022     3.0139 </r>
       <r>    -9.1827    18.2568     3.8551 </r>
       <r>    -9.1366     3.1437     4.0000 </r>
       <r>    -9.0905     0.0002     4.0000 </r>
       <r>    -9.0444     0.0000     4.0000 </r>
       <r>    -8.9984     0.0000     4.0000 </r>
       <r>    -8.9523     0.0000     4.0000 </r>
       <r>    -8.9062     0.0000     4.0000 </r>
       <r>    -8.8601     0.0000     4.0000 </r>
       <r>    -8.8141     0.0000     4.0000 </r>
       <r>    -8.7680     0.1988     4.0092 </r>
       <r>    -8.7219    17.5037     4.8157 </r>
       <r>    -8.6758     4.0001     5.0000 </r>
       <r>    -8.6298     0.0003     5.0000 </r>
       <r>    -8.5837     0.0000     5.0000 </r>
       <r>    -8.5376     0.0000     5.0000 </r>
       <r>    -8.4915     0.6141     5.0283 </r>
       <r>    -8.4454    19.1738     5.9118 </r>
       <r>    -8.3994     1.9149     6.0000 </r>
       <r>    -8.3533     0.0000     6.0000 </r>
       <r>    -8.3072     0.0000     6.0000 </r>
       <r>    -8.2611     0.0000     6.0000 </r>
       <r>    -8.2151     0.0000     6.0000 </r>
       <r>    -8.1690     0.0000     6.0000 </r>
       <r>    -8.1229     0.0000     6.0000 </r>
       <r>    -8.0768     0.0000     6.0000 </r>
       <r>    -8.0308     0.0000     6.0000 </r>
       <r>    -7.9847     0.0000     6.0000 </r>
       <r>    -7.9386     0.0000     6.0000 </r>
       <r>    -7.8925     0.0000     6.0000 </r>
       <r>    -7.8465     0.0000     6.0000 </r>
       <r>    -7.8004     0.0000     6.0000 </r>
       <r>    -7.7543     0.0000     6.0000 </r>
       <r>    -7.7082     0.0018     6.0001 </r>
       <r>    -7.6621     8.6657     6.3994 </r>
       <r>    -7.6161    34.1339     7.9722 </r>
       <r>    -7.5700     0.6589     8.0025 </r>
       <r>    -7.5239    14.5858     8.6746 </r>
       <r>    -7.4778     7.0604     8.9999 </r>
       <r>    -7.4318     0.0027     9.0000 </r>
       <r>    -7.3857     4.3938     9.2025 </r>
       <r>    -7.3396    20.7526    10.1587 </r>
       <r>    -7.2935    18.0196    10.9890 </r>
       <r>    -7.2475     0.4102    11.0079 </r>
       <r>    -7.2014    17.2013    11.8004 </r>
       <r>    -7.1553     4.3312    12.0000 </r>
       <r>    -7.1092     5.3047    12.2444 </r>
       <r>    -7.0631    21.6395    13.2415 </r>
       <r>    -7.0171    22.1243    14.2609 </r>
       <r>    -6.9710    15.9480    14.9958 </r>
       <r>    -6.9249     1.8927    15.0830 </r>
       <r>    -6.8788    19.2390    15.9695 </r>
       <r>    -6.8328     0.8499    16.0086 </r>
       <r>    -6.7867    20.2436    16.9414 </r>
       <r>    -6.7406    22.7860    17.9913 </r>
       <r>    -6.6945    17.4654    18.7960 </r>
       <r>    -6.6485    17.0591    19.5821 </r>
       <r>    -6.6024    30.2817    20.9773 </r>
       <r>    -6.5563    22.3943    22.0092 </r>
       <r>    -6.5102    18.2303    22.8492 </r>
       <r>    -6.4641     5.0904    23.0837 </r>
       <r>    -6.4181    19.2300    23.9698 </r>
       <r>    -6.3720     0.6555    24.0000 </r>
       <r>    -6.3259     0.0000    24.0000 </r>
       <r>    -6.2798     0.0930    24.0043 </r>
       <r>    -6.2338    15.8986    24.7368 </r>
       <r>    -6.1877    18.8952    25.6075 </r>
       <r>    -6.1416     8.7421    26.0103 </r>
       <r>    -6.0955    17.7721    26.8292 </r>
       <r>    -6.0495    13.1769    27.4363 </r>
       <r>    -6.0034    12.2126    27.9990 </r>
       <r>    -5.9573     0.5139    28.0227 </r>
       <r>    -5.9112    28.5778    29.3395 </r>
       <r>    -5.8651    20.4425    30.2814 </r>
       <r>    -5.8191    20.9454    31.2465 </r>
       <r>    -5.7730    27.6251    32.5194 </r>
       <r>    -5.7269    37.5145    34.2479 </r>
       <r>    -5.6808    17.1385    35.0376 </r>
       <r>    -5.6348    32.3740    36.5293 </r>
       <r>    -5.5887    31.5269    37.9820 </r>
       <r>    -5.5426    27.7568    39.2609 </r>
       <r>    -5.4965    41.3128    41.1645 </r>
       <r>    -5.4505    29.3502    42.5168 </r>
       <r>    -5.4044    40.5299    44.3843 </r>
       <r>    -5.3583    31.9202    45.8551 </r>
       <r>    -5.3122    20.3326    46.7920 </r>
       <r>    -5.2662    38.7207    48.5761 </r>
       <r>    -5.2201    49.8633    50.8736 </r>
       <r>    -5.1740    43.6560    52.8852 </r>
       <r>    -5.1279    28.3561    54.1917 </r>
       <r>    -5.0818    28.7732    55.5175 </r>
       <r>    -5.0358    31.8129    56.9833 </r>
       <r>    -4.9897    19.1378    57.8651 </r>
       <r>    -4.9436    21.6195    58.8613 </r>
       <r>    -4.8975    48.6094    61.1011 </r>
       <r>    -4.8515    47.2738    63.2793 </r>
       <r>    -4.8054    16.8438    64.0554 </r>
       <r>    -4.7593    19.5374    64.9556 </r>
       <r>    -4.7132    13.7259    65.5881 </r>
       <r>    -4.6672    31.7712    67.0520 </r>
       <r>    -4.6211    26.8878    68.2909 </r>
       <r>    -4.5750    33.3211    69.8262 </r>
       <r>    -4.5289    55.9584    72.4046 </r>
       <r>    -4.4828    34.3838    73.9889 </r>
       <r>    -4.4368    26.6737    75.2179 </r>
       <r>    -4.3907    49.1634    77.4832 </r>
       <r>    -4.3446    62.0626    80.3429 </r>
       <r>    -4.2985    17.4981    81.1491 </r>
       <r>    -4.2525    36.0376    82.8096 </r>
       <r>    -4.2064    36.0534    84.4708 </r>
       <r>    -4.1603    44.8700    86.5383 </r>
       <r>    -4.1142    51.4437    88.9087 </r>
       <r>    -4.0682    46.6110    91.0563 </r>
       <r>    -4.0221    36.8747    92.7554 </r>
       <r>    -3.9760    41.0202    94.6455 </r>
       <r>    -3.9299    35.0687    96.2613 </r>
       <r>    -3.8838    59.8777    99.0203 </r>
       <r>    -3.8378    56.9578   101.6447 </r>
       <r>    -3.7917    50.4398   103.9688 </r>
       <r>    -3.7456    45.6688   106.0731 </r>
       <r>    -3.6995    55.2051   108.6168 </r>
       <r>    -3.6535    64.1947   111.5747 </r>
       <r>    -3.6074    55.2778   114.1217 </r>
       <r>    -3.5613    64.0532   117.0731 </r>
       <r>    -3.5152    65.9140   120.1102 </r>
       <r>    -3.4692    60.6506   122.9048 </r>
       <r>    -3.4231    88.6132   126.9878 </r>
       <r>    -3.3770    73.4969   130.3743 </r>
       <r>    -3.3309    90.2246   134.5315 </r>
       <r>    -3.2848    59.8328   137.2884 </r>
       <r>    -3.2388    55.7216   139.8559 </r>
       <r>    -3.1927    26.3298   141.0691 </r>
       <r>    -3.1466    52.2034   143.4745 </r>
       <r>    -3.1005    69.9154   146.6959 </r>
       <r>    -3.0545    69.5836   149.9021 </r>
       <r>    -3.0084    70.0154   153.1282 </r>
       <r>    -2.9623    73.4197   156.5111 </r>
       <r>    -2.9162    44.4021   158.5571 </r>
       <r>    -2.8702    10.5999   159.0455 </r>
       <r>    -2.8241    19.4904   159.9435 </r>
       <r>    -2.7780    14.7359   160.6225 </r>
       <r>    -2.7319     8.9376   161.0343 </r>
       <r>    -2.6859    19.3307   161.9250 </r>
       <r>    -2.6398     1.6273   162.0000 </r>
       <r>    -2.5937     0.5199   162.0240 </r>
       <r>    -2.5476    19.0068   162.8997 </r>
       <r>    -2.5015     5.9921   163.1758 </r>
       <r>    -2.4555    17.6703   163.9900 </r>
       <r>    -2.4094     0.2373   164.0009 </r>
       <r>    -2.3633    12.1444   164.5605 </r>
       <r>    -2.3172    19.0258   165.4372 </r>
       <r>    -2.2712    12.1941   165.9990 </r>
       <r>    -2.2251     0.0523   166.0014 </r>
       <r>    -2.1790    13.2006   166.6097 </r>
       <r>    -2.1329     8.4666   166.9998 </r>
       <r>    -2.0869     0.0044   167.0000 </r>
       <r>    -2.0408     0.0000   167.0000 </r>
       <r>    -1.9947     0.0000   167.0000 </r>
       <r>    -1.9486     0.0226   167.0010 </r>
       <r>    -1.9025    12.3821   167.5716 </r>
       <r>    -1.8565     9.4132   168.0053 </r>
       <r>    -1.8104    16.4801   168.7647 </r>
       <r>    -1.7643     5.1070   169.0000 </r>
       <r>    -1.7182     1.3839   169.0637 </r>
       <r>    -1.6722    19.4198   169.9585 </r>
       <r>    -1.6261     0.8999   170.0000 </r>
       <r>    -1.5800     0.0000   170.0000 </r>
       <r>    -1.5339     0.0000   170.0000 </r>
       <r>    -1.4879     0.0000   170.0000 </r>
       <r>    -1.4418     0.2710   170.0125 </r>
       <r>    -1.3957    18.0738   170.8453 </r>
       <r>    -1.3496     3.3578   171.0000 </r>
       <r>    -1.3035     0.0002   171.0000 </r>
       <r>    -1.2575     0.0000   171.0000 </r>
       <r>    -1.2114     0.0000   171.0000 </r>
       <r>    -1.1653     0.0616   171.0028 </r>
       <r>    -1.1192    14.8864   171.6888 </r>
       <r>    -1.0732     6.7529   171.9999 </r>
       <r>    -1.0271     0.0019   172.0000 </r>
       <r>    -0.9810     0.9893   172.0456 </r>
       <r>    -0.9349    19.5616   172.9469 </r>
       <r>    -0.8889    17.6040   173.7581 </r>
       <r>    -0.8428     5.2501   174.0000 </r>
       <r>    -0.7967     0.0013   174.0000 </r>
       <r>    -0.7506     4.4915   174.2070 </r>
       <r>    -0.7045    17.0539   174.9928 </r>
       <r>    -0.6585     6.8000   175.3061 </r>
       <r>    -0.6124    15.0143   175.9979 </r>
       <r>    -0.5663    11.9763   176.5497 </r>
       <r>    -0.5202     9.8241   177.0024 </r>
       <r>    -0.4742    14.8663   177.6874 </r>
       <r>    -0.4281    21.4278   178.6747 </r>
       <r>    -0.3820     7.5807   179.0240 </r>
       <r>    -0.3359    19.0366   179.9011 </r>
       <r>    -0.2899    14.5589   180.5720 </r>
       <r>    -0.2438    27.0796   181.8197 </r>
       <r>    -0.1977     3.9399   182.0012 </r>
       <r>    -0.1516    12.8659   182.5941 </r>
       <r>    -0.1056     8.8924   183.0038 </r>
       <r>    -0.0595    15.7431   183.7292 </r>
       <r>    -0.0134    15.6029   184.4481 </r>
       <r>     0.0327    11.9582   184.9991 </r>
       <r>     0.0788     0.0191   185.0000 </r>
       <r>     0.1248     0.0000   185.0000 </r>
       <r>     0.1709     0.0000   185.0000 </r>
       <r>     0.2170     0.0000   185.0000 </r>
       <r>     0.2631     0.0000   185.0000 </r>
       <r>     0.3091     0.0000   185.0000 </r>
       <r>     0.3552     0.0000   185.0000 </r>
       <r>     0.4013     0.0000   185.0000 </r>
       <r>     0.4474     0.0000   185.0000 </r>
       <r>     0.4934     0.0000   185.0000 </r>
       <r>     0.5395     0.0000   185.0000 </r>
       <r>     0.5856     0.0000   185.0000 </r>
       <r>     0.6317     0.0000   185.0000 </r>
       <r>     0.6778     0.0000   185.0000 </r>
       <r>     0.7238     0.0000   185.0000 </r>
       <r>     0.7699     0.0000   185.0000 </r>
       <r>     0.8160     0.0001   185.0000 </r>
       <r>     0.8621     2.3444   185.1080 </r>
       <r>     0.9081    18.8888   185.9784 </r>
       <r>     0.9542     0.4696   186.0000 </r>
       <r>     1.0003     0.0000   186.0000 </r>
       <r>     1.0464     2.2339   186.1029 </r>
       <r>     1.0924    37.4501   187.8285 </r>
       <r>     1.1385    22.7158   188.8752 </r>
       <r>     1.1846     5.5132   189.1292 </r>
       <r>     1.2307    37.8031   190.8711 </r>
       <r>     1.2768     6.7659   191.1828 </r>
       <r>     1.3228    17.6504   191.9961 </r>
       <r>     1.3689    16.5917   192.7606 </r>
       <r>     1.4150     5.8645   193.0308 </r>
       <r>     1.4611    19.3834   193.9239 </r>
       <r>     1.5071    30.3886   195.3241 </r>
       <r>     1.5532    29.7989   196.6972 </r>
       <r>     1.5993    27.8555   197.9807 </r>
       <r>     1.6454     0.4198   198.0000 </r>
       <r>     1.6914     0.0000   198.0000 </r>
       <r>     1.7375     0.0000   198.0000 </r>
       <r>     1.7836     0.0000   198.0000 </r>
       <r>     1.8297     0.0000   198.0000 </r>
       <r>     1.8758     0.0000   198.0000 </r>
       <r>     1.9218     0.0000   198.0000 </r>
       <r>     1.9679     0.0000   198.0000 </r>
       <r>     2.0140     0.0000   198.0000 </r>
       <r>     2.0601     0.0000   198.0000 </r>
       <r>     2.1061     0.0000   198.0000 </r>
       <r>     2.1522     0.0000   198.0000 </r>
       <r>     2.1983     0.0000   198.0000 </r>
      </set>
     </set>
    </array>
   </total>
  </dos>
 </calculation>
 <structure name="finalpos" >
  <crystal>
   <varray name="basis" >
    <v>      16.00000000       0.00000000       0.00000000 </v>
    <v>       0.00000000      16.00000000       0.00000000 </v>
    <v>       0.00000000       0.00000000      16.00000000 </v>
   </varray>
   <i name="volume">   4096.00000000 </i>
   <varray name="rec_basis" >
    <v>       0.06250000       0.00000000       0.00000000 </v>
    <v>       0.00000000       0.06250000       0.00000000 </v>
    <v>       0.00000000       0.00000000       0.06250000 </v>
   </varray>
  </crystal>
  <varray name="positions" >
   <v>       0.25227680       0.46699153       0.39492325 </v>
   <v>       0.48205465       0.46344211       0.68044670 </v>
   <v>       0.57377348       0.67147315       0.38961641 </v>
   <v>       0.56762498       0.25976267       0.38491731 </v>
   <v>       0.34260072       0.46233413       0.62869826 </v>
   <v>       0.66736093       0.61285488       0.49373707 </v>
   <v>       0.66243500       0.31938247       0.48506060 </v>
   <v>       0.32610113       0.58558612       0.35918469 </v>
   <v>       0.33758626       0.36129176       0.34702260 </v>
   <v>       0.39769264       0.47653894       0.25951643 </v>
   <v>       0.53799966       0.25738062       0.53227258 </v>
   <v>       0.54146899       0.67377313       0.53712461 </v>
   <v>       0.66363780       0.54438433       0.35934967 </v>
   <v>       0.64583921       0.39323924       0.35273352 </v>
   <v>       0.43142184       0.59412410       0.61008525 </v>
   <v>       0.43250091       0.34097114       0.59554795 </v>
   <v>       0.46338339       0.60557100       0.31616283 </v>
   <v>       0.48015191       0.35432996       0.31159755 </v>
   <v>       0.42827727       0.29346087       0.44320265 </v>
   <v>       0.42756940       0.63394562       0.45799215 </v>
   <v>       0.32163213       0.54265027       0.50520804 </v>
   <v>       0.33096236       0.39192469       0.49607722 </v>
   <v>       0.54079362       0.48553934       0.30474229 </v>
   <v>       0.58005095       0.54089660       0.59464626 </v>
   <v>       0.57831143       0.38908485       0.59016088 </v>
   <v>       0.66195784       0.46555594       0.48946525 </v>
   <v>       0.45581028       0.47177849       0.53914165 </v>
   <v>       0.54360981       0.54284386       0.44277841 </v>
   <v>       0.53451114       0.39030606       0.44452588 </v>
   <v>       0.41317097       0.47633991       0.39936087 </v>
   <v>       0.43636850       0.68583924       0.55694886 </v>
   <v>       0.51298147       0.56380005       0.67710927 </v>
  </varray>
 </structure>
</modeling>
