unknown system                          
           1
    16.000000    0.000000    0.000000
     0.000000   16.000000    0.000000
     0.000000    0.000000   16.000000
   Ni   H 
    30     2
Direct configuration=     1
   0.24519860  0.46644179  0.39361015
   0.47572325  0.46498100  0.67899954
   0.56542719  0.67870942  0.38850544
   0.57151158  0.26480365  0.38532892
   0.33790829  0.46730806  0.62462410
   0.66091724  0.62039149  0.49096673
   0.66274834  0.32558292  0.49161963
   0.32902893  0.57548410  0.34758521
   0.33265598  0.36074344  0.34589142
   0.40193155  0.46945372  0.25367487
   0.53678343  0.26342178  0.53248366
   0.53206341  0.67754946  0.53404357
   0.65614852  0.54989485  0.35848137
   0.65907786  0.39771757  0.35888769
   0.42388649  0.59459986  0.60035727
   0.42696413  0.34229346  0.59552709
   0.47030708  0.59470583  0.31099861
   0.47352537  0.34469672  0.30790031
   0.42806297  0.30071906  0.44421720
   0.42298968  0.63651049  0.44663129
   0.32215600  0.54318651  0.49681990
   0.32418167  0.39224283  0.49454388
   0.54419114  0.47086200  0.30544723
   0.57285586  0.54765889  0.59441562
   0.57382906  0.39636477  0.59010852
   0.65832766  0.47347092  0.49140329
   0.45299669  0.46977254  0.53620476
   0.53727524  0.54742795  0.44153168
   0.53866168  0.39396091  0.44004928
   0.41332524  0.46913049  0.39488239
   0.51491247  0.64166722  0.63073326
   0.50634486  0.57564337  0.67288310
Direct configuration=     2
   0.24517631  0.46644999  0.39364199
   0.47568839  0.46567233  0.67914069
   0.56548625  0.67859858  0.38839215
   0.57155314  0.26490429  0.38540108
   0.33775340  0.46711820  0.62444547
   0.66076940  0.62029116  0.49096838
   0.66297438  0.32552048  0.49155865
   0.32904444  0.57551085  0.34760199
   0.33265720  0.36066093  0.34574279
   0.40194965  0.46940296  0.25376855
   0.53674800  0.26351635  0.53243717
   0.53222209  0.67800264  0.53341875
   0.65619917  0.54987962  0.35846538
   0.65914566  0.39768729  0.35893305
   0.42409166  0.59464010  0.60111143
   0.42692069  0.34242382  0.59558304
   0.47030606  0.59477390  0.31074930
   0.47349474  0.34471077  0.30798407
   0.42810081  0.30065161  0.44408779
   0.42297926  0.63644205  0.44662633
   0.32217355  0.54328202  0.49695458
   0.32416992  0.39236317  0.49466831
   0.54412737  0.47087031  0.30549794
   0.57326335  0.54798512  0.59505524
   0.57400182  0.39597629  0.58987910
   0.65832511  0.47354383  0.49135999
   0.45282407  0.46924943  0.53576892
   0.53724061  0.54759458  0.44166317
   0.53847901  0.39389684  0.44000066
   0.41328221  0.46914431  0.39493567
   0.51514832  0.64332970  0.62976903
   0.50562145  0.57330356  0.67374628
Direct configuration=     3
   0.24510946  0.46647462  0.39373748
   0.47558383  0.46774634  0.67956415
   0.56566344  0.67826607  0.38805231
   0.57167782  0.26520621  0.38561756
   0.33728870  0.46654860  0.62390957
   0.66032588  0.61999014  0.49097333
   0.66365252  0.32533316  0.49137573
   0.32909096  0.57559108  0.34765230
   0.33266086  0.36041342  0.34529690
   0.40200395  0.46925066  0.25404961
   0.53664170  0.26380005  0.53229771
   0.53269811  0.67936215  0.53154431
   0.65635114  0.54983392  0.35841741
   0.65934904  0.39759643  0.35906914
   0.42470715  0.59476081  0.60337392
   0.42679035  0.34281490  0.59575089
   0.47030299  0.59497811  0.31000138
   0.47340284  0.34475291  0.30823537
   0.42821430  0.30044926  0.44369958
   0.42294801  0.63623676  0.44661146
   0.32222620  0.54356855  0.49735864
   0.32413465  0.39272421  0.49504161
   0.54393606  0.47089526  0.30565006
   0.57448585  0.54896379  0.59697412
   0.57452009  0.39481086  0.58919085
   0.65831744  0.47376256  0.49123006
   0.45230620  0.46768008  0.53446140
   0.53713671  0.54809448  0.44205763
   0.53793100  0.39370465  0.43985477
   0.41315311  0.46918577  0.39509553
   0.51585588  0.64831713  0.62687635
   0.50345120  0.56628415  0.67633583
Direct configuration=     4
   0.24529396  0.46646916  0.39378570
   0.47538883  0.46738640  0.67926437
   0.56585909  0.67832450  0.38732050
   0.57183539  0.26520746  0.38559008
   0.33742753  0.46656167  0.62390214
   0.66044575  0.62000243  0.49104471
   0.66393806  0.32526527  0.49117826
   0.32909875  0.57559803  0.34769544
   0.33250199  0.36046871  0.34528675
   0.40192678  0.46920414  0.25405777
   0.53663257  0.26374674  0.53226052
   0.53257220  0.67947391  0.53137463
   0.65626728  0.54972394  0.35838218
   0.65925327  0.39764060  0.35916666
   0.42569498  0.59447417  0.60345355
   0.42672873  0.34249607  0.59599291
   0.47026184  0.59501156  0.30993075
   0.47344387  0.34469525  0.30825526
   0.42792509  0.30031877  0.44368222
   0.42290047  0.63620125  0.44662655
   0.32234405  0.54372156  0.49749346
   0.32393621  0.39256339  0.49481616
   0.54404562  0.47100054  0.30581810
   0.57440015  0.54934972  0.59696532
   0.57428480  0.39531786  0.58927632
   0.65809569  0.47363122  0.49130817
   0.45252503  0.46862612  0.53545737
   0.53702330  0.54772987  0.44236380
   0.53837334  0.39381929  0.43961215
   0.41296131  0.46932327  0.39471667
   0.51588763  0.65058739  0.62549394
   0.50264392  0.56345681  0.67778453
Direct configuration=     5
   0.24546297  0.46646415  0.39382986
   0.47521019  0.46705668  0.67898976
   0.56603831  0.67837803  0.38665013
   0.57197973  0.26520860  0.38556492
   0.33755471  0.46657365  0.62389534
   0.66055556  0.62001369  0.49111010
   0.66419963  0.32520308  0.49099737
   0.32910588  0.57560440  0.34773495
   0.33235647  0.36051937  0.34527745
   0.40185609  0.46916154  0.25406525
   0.53662420  0.26369790  0.53222645
   0.53245686  0.67957629  0.53121920
   0.65619046  0.54962320  0.35834990
   0.65916554  0.39768106  0.35925599
   0.42659987  0.59421159  0.60352649
   0.42667228  0.34220400  0.59621462
   0.47022413  0.59504220  0.30986605
   0.47348146  0.34464243  0.30827348
   0.42766016  0.30019923  0.44366633
   0.42285691  0.63616873  0.44664037
   0.32245200  0.54386172  0.49761696
   0.32375443  0.39241608  0.49460965
   0.54414599  0.47109698  0.30597203
   0.57432165  0.54970324  0.59695726
   0.57406926  0.39578231  0.58935461
   0.65789256  0.47351091  0.49137972
   0.45272549  0.46949274  0.53636973
   0.53691941  0.54739587  0.44264428
   0.53877854  0.39392430  0.43938990
   0.41278562  0.46944923  0.39436961
   0.51591671  0.65266704  0.62422760
   0.50190441  0.56086683  0.67911161
Direct configuration=     6
   0.24562933  0.46657289  0.39387177
   0.47483161  0.46462044  0.67923669
   0.56630383  0.67813574  0.38589279
   0.57214617  0.26507537  0.38547510
   0.33757791  0.46665510  0.62400318
   0.66059629  0.62007094  0.49099259
   0.66426083  0.32517575  0.49092189
   0.32897741  0.57576119  0.34775362
   0.33214287  0.36049060  0.34523721
   0.40179389  0.46914070  0.25378245
   0.53666330  0.26386722  0.53216920
   0.53246231  0.67969788  0.53019547
   0.65603087  0.54957038  0.35846821
   0.65932038  0.39774562  0.35914662
   0.42743778  0.59460838  0.60336219
   0.42659264  0.34180923  0.59607920
   0.47016915  0.59499313  0.31004074
   0.47354427  0.34461943  0.30837774
   0.42759900  0.30028505  0.44375351
   0.42299869  0.63619400  0.44656543
   0.32263357  0.54388152  0.49772692
   0.32392076  0.39236865  0.49443534
   0.54413756  0.47121731  0.30601487
   0.57425259  0.54994160  0.59654072
   0.57370771  0.39645928  0.58946165
   0.65780412  0.47339674  0.49164524
   0.45300862  0.46996402  0.53634390
   0.53687750  0.54738554  0.44266745
   0.53850782  0.39401542  0.43956708
   0.41290873  0.46940649  0.39500646
   0.51550269  0.65504703  0.62371652
   0.50157726  0.55922443  0.68090522
Direct configuration=     7
   0.24579743  0.46668277  0.39391412
   0.47444907  0.46215874  0.67948621
   0.56657214  0.67789092  0.38512753
   0.57231435  0.26494074  0.38538436
   0.33760135  0.46673740  0.62411214
   0.66063744  0.62012879  0.49087386
   0.66432267  0.32514813  0.49084563
   0.32884760  0.57591961  0.34777248
   0.33192703  0.36046153  0.34519654
   0.40173104  0.46911965  0.25349669
   0.53670280  0.26403831  0.53211135
   0.53246783  0.67982075  0.52916104
   0.65586963  0.54951701  0.35858775
   0.65947684  0.39781086  0.35903611
   0.42828444  0.59500931  0.60319617
   0.42651218  0.34141033  0.59594237
   0.47011359  0.59494356  0.31021726
   0.47360773  0.34459618  0.30848309
   0.42753721  0.30037177  0.44384160
   0.42314195  0.63621954  0.44648971
   0.32281703  0.54390152  0.49783802
   0.32408883  0.39232073  0.49425921
   0.54412906  0.47133889  0.30605815
   0.57418281  0.55018245  0.59611982
   0.57334238  0.39714333  0.58956980
   0.65771476  0.47328138  0.49191353
   0.45329472  0.47044023  0.53631780
   0.53683515  0.54737510  0.44269086
   0.53823427  0.39410750  0.43974610
   0.41303312  0.46936330  0.39564997
   0.51508434  0.65745189  0.62320010
   0.50124668  0.55756487  0.68271759
Direct configuration=     8
   0.24576051  0.46665864  0.39390482
   0.47453308  0.46269932  0.67943142
   0.56651322  0.67794468  0.38529558
   0.57227742  0.26497031  0.38540428
   0.33759621  0.46671932  0.62408821
   0.66062840  0.62011609  0.49089993
   0.66430909  0.32515419  0.49086238
   0.32887611  0.57588483  0.34776834
   0.33197443  0.36046792  0.34520547
   0.40174484  0.46912427  0.25355944
   0.53669413  0.26400074  0.53212405
   0.53246662  0.67979377  0.52938820
   0.65590504  0.54952873  0.35856150
   0.65944248  0.39779654  0.35906038
   0.42809852  0.59492127  0.60323262
   0.42652985  0.34149793  0.59597242
   0.47012579  0.59495444  0.31017849
   0.47359380  0.34460129  0.30845996
   0.42755078  0.30035272  0.44382225
   0.42311049  0.63621393  0.44650634
   0.32277674  0.54389713  0.49781362
   0.32405192  0.39233125  0.49429788
   0.54413092  0.47131219  0.30604864
   0.57419813  0.55012956  0.59621225
   0.57342261  0.39699311  0.58954605
   0.65773439  0.47330671  0.49185461
   0.45323189  0.47033566  0.53632353
   0.53684445  0.54737739  0.44268572
   0.53829434  0.39408728  0.43970679
   0.41300580  0.46937278  0.39550866
   0.51517620  0.65692378  0.62331350
   0.50131928  0.55792931  0.68231960
Direct configuration=     9
   0.24579983  0.46683124  0.39392038
   0.47460218  0.46174160  0.67971560
   0.56683283  0.67761610  0.38482666
   0.57225081  0.26503718  0.38541693
   0.33768840  0.46669524  0.62392285
   0.66060829  0.62013234  0.49057586
   0.66394708  0.32534815  0.49103258
   0.32891781  0.57588050  0.34782593
   0.33212556  0.36050637  0.34512052
   0.40184170  0.46916547  0.25404994
   0.53685137  0.26438303  0.53205446
   0.53282161  0.68000653  0.52858609
   0.65598620  0.54951215  0.35869857
   0.65944101  0.39785369  0.35907586
   0.42847897  0.59538484  0.60366496
   0.42634715  0.34146133  0.59536948
   0.46990773  0.59474894  0.31025540
   0.47359656  0.34474973  0.30864768
   0.42774491  0.30036440  0.44372181
   0.42295891  0.63628350  0.44625537
   0.32289336  0.54386600  0.49794771
   0.32436860  0.39258913  0.49455483
   0.54383121  0.47117787  0.30597140
   0.57379198  0.54992709  0.59663632
   0.57357206  0.39671510  0.58941621
   0.65788756  0.47331212  0.49189122
   0.45290372  0.46968660  0.53623663
   0.53713685  0.54774688  0.44221650
   0.53815093  0.39377947  0.43985394
   0.41290281  0.46927329  0.39528130
   0.51434262  0.65818252  0.62376922
   0.50138686  0.55743869  0.68284473
Direct configuration=    10
   0.24581252  0.46688694  0.39392540
   0.47462448  0.46143252  0.67980731
   0.56693598  0.67751006  0.38467533
   0.57224222  0.26505876  0.38542101
   0.33771816  0.46668746  0.62386948
   0.66060180  0.62013758  0.49047128
   0.66383025  0.32541074  0.49108751
   0.32893127  0.57587910  0.34784451
   0.33217433  0.36051877  0.34509311
   0.40187296  0.46917876  0.25420824
   0.53690212  0.26450641  0.53203200
   0.53293617  0.68007520  0.52832724
   0.65601240  0.54950681  0.35874280
   0.65944053  0.39787213  0.35908086
   0.42860175  0.59553445  0.60380448
   0.42628819  0.34144952  0.59517490
   0.46983736  0.59468261  0.31028022
   0.47359745  0.34479764  0.30870827
   0.42780756  0.30036817  0.44368940
   0.42291000  0.63630595  0.44617438
   0.32293100  0.54385595  0.49799099
   0.32447079  0.39267235  0.49463775
   0.54373448  0.47113453  0.30594648
   0.57366090  0.54986174  0.59677318
   0.57362029  0.39662537  0.58937430
   0.65793700  0.47331386  0.49190303
   0.45279781  0.46947713  0.53620859
   0.53723122  0.54786613  0.44206508
   0.53810465  0.39368014  0.43990142
   0.41286957  0.46924118  0.39520792
   0.51407361  0.65858875  0.62391629
   0.50140867  0.55728036  0.68301420
Direct configuration=    11
   0.24587565  0.46696020  0.39399441
   0.47487084  0.46131356  0.67988166
   0.56730977  0.67742356  0.38400272
   0.57222634  0.26502261  0.38534915
   0.33780188  0.46670377  0.62392392
   0.66072310  0.62009334  0.49031379
   0.66373877  0.32558263  0.49124559
   0.32884909  0.57590338  0.34787879
   0.33224275  0.36054757  0.34511021
   0.40180065  0.46921420  0.25440578
   0.53696991  0.26455633  0.53203194
   0.53312390  0.67999711  0.52853813
   0.65631292  0.54934948  0.35857952
   0.65924025  0.39795746  0.35917382
   0.42902774  0.59561314  0.60423770
   0.42603056  0.34116534  0.59475018
   0.46962268  0.59459662  0.31016926
   0.47360952  0.34477418  0.30873614
   0.42776725  0.30016141  0.44348426
   0.42278422  0.63639402  0.44605830
   0.32311770  0.54395899  0.49809942
   0.32452603  0.39283792  0.49467086
   0.54381403  0.47102338  0.30595437
   0.57311111  0.54951319  0.59719220
   0.57385426  0.39634027  0.58936949
   0.65794315  0.47348555  0.49187371
   0.45285508  0.46952162  0.53612405
   0.53712153  0.54760480  0.44200140
   0.53822013  0.39386918  0.43991196
   0.41289782  0.46926147  0.39524583
   0.51296610  0.65967966  0.62404413
   0.50156275  0.55697112  0.68300425
Direct configuration=    12
   0.24593367  0.46702752  0.39405782
   0.47509725  0.46120424  0.67995000
   0.56765329  0.67734406  0.38338457
   0.57221175  0.26498938  0.38528311
   0.33787883  0.46671876  0.62397395
   0.66083457  0.62005268  0.49016906
   0.66365470  0.32574060  0.49139087
   0.32877356  0.57592569  0.34791029
   0.33230562  0.36057403  0.34512593
   0.40173419  0.46924677  0.25458732
   0.53703221  0.26460221  0.53203189
   0.53329643  0.67992535  0.52873195
   0.65658910  0.54920489  0.35842946
   0.65905619  0.39803588  0.35925925
   0.42941923  0.59568546  0.60463583
   0.42579380  0.34090417  0.59435986
   0.46942538  0.59451759  0.31006729
   0.47362062  0.34475263  0.30876175
   0.42773020  0.29997140  0.44329573
   0.42266863  0.63647496  0.44595163
   0.32328929  0.54405368  0.49819907
   0.32457680  0.39299008  0.49470130
   0.54388713  0.47092123  0.30596163
   0.57260583  0.54919287  0.59757729
   0.57406929  0.39607824  0.58936507
   0.65794881  0.47364334  0.49184676
   0.45290771  0.46956251  0.53604636
   0.53702073  0.54736464  0.44194289
   0.53832626  0.39404292  0.43992164
   0.41292378  0.46928011  0.39528067
   0.51194827  0.66068223  0.62416163
   0.50170436  0.55668692  0.68299510
Direct configuration=    13
   0.24599884  0.46703780  0.39415091
   0.47518849  0.46096424  0.67988515
   0.56789330  0.67703957  0.38307964
   0.57220493  0.26501355  0.38527017
   0.33806996  0.46674521  0.62409610
   0.66079141  0.61995616  0.49010228
   0.66377326  0.32580106  0.49143461
   0.32864194  0.57596763  0.34793337
   0.33225649  0.36059761  0.34516514
   0.40160116  0.46922570  0.25456322
   0.53699530  0.26446635  0.53196072
   0.53341624  0.67960622  0.52883231
   0.65681451  0.54907628  0.35827752
   0.65898644  0.39800777  0.35932581
   0.42951730  0.59563192  0.60494320
   0.42565320  0.34077551  0.59409182
   0.46933149  0.59449670  0.30997295
   0.47364812  0.34467862  0.30871074
   0.42772080  0.29981626  0.44314042
   0.42288603  0.63658777  0.44597694
   0.32344739  0.54419278  0.49831561
   0.32455760  0.39305146  0.49460624
   0.54396698  0.47099779  0.30591966
   0.57255695  0.54885188  0.59756652
   0.57411402  0.39600307  0.58947210
   0.65790591  0.47385775  0.49188941
   0.45302106  0.46968991  0.53626610
   0.53703540  0.54748009  0.44191057
   0.53828314  0.39401583  0.43991738
   0.41295864  0.46933295  0.39539251
   0.51074455  0.66179016  0.62424188
   0.50193662  0.55664145  0.68294592
Direct configuration=    14
   0.24619435  0.46706864  0.39443017
   0.47546222  0.46024424  0.67969060
   0.56861332  0.67612612  0.38216486
   0.57218446  0.26508605  0.38523134
   0.33864338  0.46682455  0.62446255
   0.66066193  0.61966659  0.48990193
   0.66412896  0.32598246  0.49156580
   0.32824707  0.57609346  0.34800262
   0.33210911  0.36066834  0.34528278
   0.40120206  0.46916248  0.25449093
   0.53688458  0.26405878  0.53174720
   0.53377565  0.67864884  0.52913342
   0.65749074  0.54869044  0.35782171
   0.65877718  0.39792345  0.35952552
   0.42981152  0.59547129  0.60586530
   0.42523140  0.34038955  0.59328771
   0.46904982  0.59443400  0.30968995
   0.47373063  0.34445658  0.30855772
   0.42769261  0.29935085  0.44267452
   0.42353823  0.63692617  0.44605288
   0.32392171  0.54461009  0.49866524
   0.32449998  0.39323560  0.49432105
   0.54420652  0.47122748  0.30579375
   0.57241029  0.54782891  0.59753421
   0.57424821  0.39577755  0.58979318
   0.65777719  0.47450099  0.49201733
   0.45336113  0.47007212  0.53692532
   0.53707941  0.54782644  0.44181363
   0.53815380  0.39393457  0.43990461
   0.41306321  0.46949146  0.39572805
   0.50713341  0.66511394  0.62448265
   0.50263340  0.55650504  0.68279840
Direct configuration=    15
   0.24658537  0.46713032  0.39498870
   0.47600967  0.45880424  0.67930150
   0.57005338  0.67429923  0.38033530
   0.57214352  0.26523106  0.38515367
   0.33979020  0.46698324  0.62519545
   0.66040297  0.61908745  0.48950124
   0.66484035  0.32634524  0.49182820
   0.32745733  0.57634511  0.34814111
   0.33181435  0.36080981  0.34551807
   0.40040387  0.46903603  0.25434634
   0.53666312  0.26324363  0.53132017
   0.53449447  0.67673407  0.52973563
   0.65884320  0.54791876  0.35691008
   0.65835866  0.39775481  0.35992492
   0.43039994  0.59515004  0.60770951
   0.42438780  0.33961763  0.59167950
   0.46848649  0.59430861  0.30912394
   0.47389564  0.34401251  0.30825169
   0.42763624  0.29842003  0.44174272
   0.42484264  0.63760297  0.44620476
   0.32487034  0.54544469  0.49936450
   0.32438476  0.39360388  0.49375069
   0.54468561  0.47168686  0.30554193
   0.57211698  0.54578296  0.59746958
   0.57451659  0.39532651  0.59043536
   0.65751975  0.47578747  0.49227319
   0.45404125  0.47083653  0.53824377
   0.53716742  0.54851913  0.44161975
   0.53789512  0.39377205  0.43987907
   0.41327237  0.46980848  0.39639912
   0.49991112  0.67176150  0.62496418
   0.50402697  0.55623221  0.68250334
Direct configuration=    16
   0.24628431  0.46708283  0.39455867
   0.47558816  0.45991295  0.67960108
   0.56894462  0.67570583  0.38174396
   0.57217504  0.26511941  0.38521347
   0.33890721  0.46686106  0.62463116
   0.66060235  0.61953335  0.48980975
   0.66429262  0.32606592  0.49162617
   0.32806538  0.57615136  0.34803448
   0.33204130  0.36070089  0.34533691
   0.40101843  0.46913339  0.25445766
   0.53683363  0.26387125  0.53164896
   0.53394102  0.67820833  0.52927196
   0.65780189  0.54851290  0.35761198
   0.65868090  0.39788465  0.35961740
   0.42994689  0.59539739  0.60628958
   0.42503732  0.34021197  0.59291773
   0.46892022  0.59440515  0.30955973
   0.47376859  0.34435442  0.30848732
   0.42767965  0.29913671  0.44246015
   0.42383832  0.63708187  0.44608782
   0.32413995  0.54480209  0.49882611
   0.32447348  0.39332033  0.49418984
   0.54431674  0.47133317  0.30573582
   0.57234281  0.54735822  0.59751934
   0.57430995  0.39567378  0.58994092
   0.65771796  0.47479696  0.49207620
   0.45351759  0.47024798  0.53722864
   0.53709966  0.54798580  0.44176903
   0.53809429  0.39389718  0.43989873
   0.41311133  0.46956439  0.39588243
   0.50547185  0.66664327  0.62459343
   0.50295401  0.55644227  0.68273051
Direct configuration=    17
   0.24629410  0.46710940  0.39462236
   0.47564162  0.45975787  0.67966209
   0.56907858  0.67550937  0.38164013
   0.57219771  0.26513072  0.38522144
   0.33897364  0.46685722  0.62469849
   0.66064432  0.61950905  0.48978627
   0.66432313  0.32611040  0.49163186
   0.32805841  0.57618505  0.34809808
   0.33202937  0.36072477  0.34533972
   0.40095459  0.46909496  0.25449767
   0.53682714  0.26379426  0.53158309
   0.53399116  0.67799942  0.52939109
   0.65792048  0.54842764  0.35755403
   0.65869081  0.39782920  0.35965624
   0.42996388  0.59541354  0.60651375
   0.42501004  0.34019030  0.59276805
   0.46883580  0.59439251  0.30950832
   0.47377795  0.34438397  0.30843410
   0.42767098  0.29906445  0.44237902
   0.42393837  0.63714132  0.44606244
   0.32424154  0.54488654  0.49889973
   0.32451536  0.39336127  0.49416177
   0.54427793  0.47140078  0.30572031
   0.57248968  0.54716088  0.59743285
   0.57433513  0.39556163  0.58993888
   0.65767774  0.47477926  0.49208979
   0.45360086  0.47025035  0.53721026
   0.53716321  0.54795253  0.44171398
   0.53802568  0.39386107  0.43996559
   0.41312395  0.46962712  0.39590534
   0.50451517  0.66750478  0.62458088
   0.50312915  0.55642543  0.68268935
Direct configuration=    18
   0.24632350  0.46718909  0.39481343
   0.47580199  0.45929264  0.67984511
   0.56948047  0.67491999  0.38132864
   0.57226570  0.26516465  0.38524537
   0.33917291  0.46684570  0.62490049
   0.66077021  0.61943612  0.48971584
   0.66441466  0.32624384  0.49164893
   0.32803751  0.57628612  0.34828888
   0.33199360  0.36079642  0.34534813
   0.40076308  0.46897968  0.25461769
   0.53680769  0.26356331  0.53138548
   0.53414159  0.67737268  0.52974849
   0.65827627  0.54817184  0.35738017
   0.65872054  0.39766284  0.35977277
   0.43001485  0.59546201  0.60718625
   0.42492821  0.34012531  0.59231901
   0.46858251  0.59435458  0.30935409
   0.47380605  0.34447264  0.30827446
   0.42764498  0.29884768  0.44213561
   0.42423850  0.63731968  0.44598627
   0.32454631  0.54513989  0.49912058
   0.32464100  0.39348409  0.49407757
   0.54416148  0.47160363  0.30567378
   0.57293028  0.54656887  0.59717336
   0.57441065  0.39522517  0.58993274
   0.65755705  0.47472615  0.49213057
   0.45385065  0.47025748  0.53715510
   0.53735388  0.54785272  0.44154883
   0.53781984  0.39375274  0.44016614
   0.41316180  0.46981529  0.39597407
   0.50164512  0.67008930  0.62454324
   0.50365459  0.55637491  0.68256586
Direct configuration=    19
   0.24638229  0.46734847  0.39519556
   0.47612272  0.45836216  0.68021115
   0.57028424  0.67374122  0.38070568
   0.57240169  0.26523250  0.38529324
   0.33957146  0.46682267  0.62530448
   0.66102199  0.61929028  0.48957498
   0.66459773  0.32651073  0.49168308
   0.32799571  0.57648827  0.34867047
   0.33192206  0.36093971  0.34536496
   0.40038007  0.46874913  0.25485773
   0.53676879  0.26310141  0.53099025
   0.53444244  0.67611922  0.53046328
   0.65898785  0.54766024  0.35703246
   0.65878000  0.39733013  0.36000582
   0.43011679  0.59555894  0.60853126
   0.42476455  0.33999532  0.59142092
   0.46807593  0.59427873  0.30904563
   0.47386224  0.34464998  0.30795517
   0.42759299  0.29841413  0.44164878
   0.42483878  0.63767639  0.44583395
   0.32515586  0.54564659  0.49956228
   0.32489229  0.39372973  0.49390917
   0.54392860  0.47200933  0.30558072
   0.57381147  0.54538486  0.59665439
   0.57456168  0.39455225  0.58992047
   0.65731567  0.47461995  0.49221213
   0.45435024  0.47027174  0.53704478
   0.53773521  0.54765310  0.44121853
   0.53740816  0.39353607  0.44056725
   0.41323750  0.47019163  0.39611154
   0.49590503  0.67525834  0.62446794
   0.50470546  0.55627386  0.68231888
Direct configuration=    20
   0.24649986  0.46766724  0.39595984
   0.47676418  0.45650121  0.68094324
   0.57189178  0.67138370  0.37945974
   0.57267368  0.26536820  0.38538896
   0.34036856  0.46677660  0.62611245
   0.66152555  0.61899859  0.48929325
   0.66496387  0.32704451  0.49175138
   0.32791210  0.57689256  0.34943366
   0.33177898  0.36122630  0.34539862
   0.39961403  0.46828801  0.25533780
   0.53669098  0.26217760  0.53019981
   0.53504414  0.67361230  0.53189287
   0.66041100  0.54663703  0.35633704
   0.65889892  0.39666471  0.36047191
   0.43032068  0.59575281  0.61122128
   0.42443721  0.33973535  0.58962476
   0.46706279  0.59412703  0.30842872
   0.47397463  0.34500465  0.30731660
   0.42748900  0.29754704  0.44067514
   0.42603932  0.63838980  0.44552931
   0.32637496  0.54665999  0.50044568
   0.32539486  0.39422100  0.49357237
   0.54346283  0.47282072  0.30539460
   0.57557386  0.54301682  0.59561646
   0.57486376  0.39320641  0.58989592
   0.65683292  0.47440754  0.49237526
   0.45534941  0.47030025  0.53682414
   0.53849786  0.54725387  0.44055794
   0.53658480  0.39310273  0.44136947
   0.41338891  0.47094431  0.39638646
   0.48442484  0.68559641  0.62431736
   0.50680720  0.55607178  0.68182491
Direct configuration=    21
   0.24640929  0.46742167  0.39537107
   0.47627002  0.45793483  0.68037926
   0.57065338  0.67319986  0.38041957
   0.57246415  0.26526366  0.38531522
   0.33975450  0.46681209  0.62549001
   0.66113762  0.61922330  0.48951028
   0.66468181  0.32663330  0.49169876
   0.32797651  0.57658111  0.34884572
   0.33188921  0.36100552  0.34537269
   0.40020416  0.46864324  0.25496797
   0.53675092  0.26288927  0.53080874
   0.53458061  0.67554355  0.53079156
   0.65931465  0.54742528  0.35687277
   0.65880731  0.39717733  0.36011285
   0.43016361  0.59560346  0.60914898
   0.42468938  0.33993562  0.59100847
   0.46784328  0.59424390  0.30890397
   0.47388805  0.34473142  0.30780854
   0.42756911  0.29821502  0.44142520
   0.42511446  0.63784021  0.44576400
   0.32543580  0.54587930  0.49976514
   0.32500769  0.39384254  0.49383183
   0.54382165  0.47219565  0.30553798
   0.57421617  0.54484108  0.59641605
   0.57463105  0.39424320  0.58991483
   0.65720482  0.47457117  0.49224959
   0.45457968  0.47027829  0.53699411
   0.53791034  0.54756143  0.44106684
   0.53721909  0.39343656  0.44075146
   0.41327227  0.47036447  0.39617467
   0.49326880  0.67763229  0.62443337
   0.50518808  0.55622746  0.68220545
Direct configuration=    22
   0.24637028  0.46756134  0.39551708
   0.47646003  0.45792004  0.68048672
   0.57083526  0.67290471  0.38045276
   0.57254418  0.26527033  0.38527971
   0.33987041  0.46675342  0.62547008
   0.66149930  0.61916997  0.48948088
   0.66461976  0.32658914  0.49165997
   0.32805005  0.57670483  0.34909980
   0.33192501  0.36110639  0.34534296
   0.40009237  0.46854570  0.25511148
   0.53680378  0.26275666  0.53066511
   0.53444340  0.67521049  0.53148516
   0.65951516  0.54718743  0.35689581
   0.65874280  0.39706625  0.36013758
   0.43048871  0.59557786  0.60961459
   0.42485706  0.34002997  0.59087253
   0.46764237  0.59433311  0.30881937
   0.47393021  0.34495685  0.30777714
   0.42750738  0.29810002  0.44126127
   0.42523990  0.63783042  0.44560876
   0.32563974  0.54595141  0.49992682
   0.32524260  0.39398212  0.49386873
   0.54372275  0.47224863  0.30563084
   0.57453175  0.54452361  0.59627640
   0.57464567  0.39380324  0.58983171
   0.65730631  0.47415273  0.49211564
   0.45457170  0.47037336  0.53701143
   0.53808188  0.54717598  0.44091560
   0.53713579  0.39326589  0.44074922
   0.41326325  0.47049909  0.39609299
   0.49074681  0.67974030  0.62392636
   0.50559179  0.55610580  0.68197243
Direct configuration=    23
   0.24625328  0.46798035  0.39595510
   0.47703006  0.45787569  0.68080911
   0.57138090  0.67201926  0.38055234
   0.57278425  0.26529035  0.38517321
   0.34021816  0.46657740  0.62541030
   0.66258435  0.61900998  0.48939266
   0.66443362  0.32645667  0.49154359
   0.32827068  0.57707599  0.34986204
   0.33203242  0.36140899  0.34525376
   0.39975698  0.46825307  0.25554200
   0.53696234  0.26235885  0.53023421
   0.53403178  0.67421129  0.53356595
   0.66011667  0.54647389  0.35696493
   0.65854927  0.39673302  0.36021179
   0.43146400  0.59550106  0.61101144
   0.42536011  0.34031301  0.59046473
   0.46703965  0.59460074  0.30856555
   0.47405669  0.34563312  0.30768296
   0.42732220  0.29775503  0.44076948
   0.42561621  0.63780106  0.44514306
   0.32625155  0.54616775  0.50041185
   0.32594733  0.39440085  0.49397942
   0.54342607  0.47240756  0.30590944
   0.57547849  0.54357122  0.59585744
   0.57468953  0.39248333  0.58958234
   0.65761077  0.47289740  0.49171377
   0.45454775  0.47065856  0.53706338
   0.53859653  0.54601962  0.44046187
   0.53688589  0.39275390  0.44074250
   0.41323619  0.47090294  0.39584796
   0.48318082  0.68606430  0.62240535
   0.50680291  0.55574082  0.68127340
Direct configuration=    24
   0.24622485  0.46808214  0.39606152
   0.47716854  0.45786492  0.68088743
   0.57151345  0.67180415  0.38057654
   0.57284257  0.26529521  0.38514734
   0.34030264  0.46653464  0.62539577
   0.66284794  0.61897111  0.48937123
   0.66438840  0.32642449  0.49151531
   0.32832428  0.57716615  0.35004721
   0.33205851  0.36148250  0.34523210
   0.39967551  0.46818198  0.25564658
   0.53700086  0.26226220  0.53012953
   0.53393179  0.67396855  0.53407144
   0.66026280  0.54630055  0.35698172
   0.65850226  0.39665207  0.36022982
   0.43170094  0.59548240  0.61135077
   0.42548232  0.34038177  0.59036566
   0.46689323  0.59466576  0.30850389
   0.47408742  0.34579741  0.30766009
   0.42727722  0.29767123  0.44065001
   0.42570763  0.63779393  0.44502993
   0.32640018  0.54622030  0.50052968
   0.32611853  0.39450258  0.49400631
   0.54335400  0.47244617  0.30597712
   0.57570848  0.54333985  0.59575566
   0.57470019  0.39216269  0.58952176
   0.65768473  0.47259244  0.49161614
   0.45454193  0.47072785  0.53707600
   0.53872155  0.54573871  0.44035165
   0.53682518  0.39262952  0.44074087
   0.41322961  0.47100105  0.39578843