 vasp.6.3.2 27Jun22 (build Nov 14 2022 18:12:39) complex                        
  
 executed on                 Saga date 2023.01.31  12:48:38
 running on   40 total cores
 distrk:  each k-point on   40 cores,    1 groups
 distr:  one band on NCORE=  20 cores,    2 groups


--------------------------------------------------------------------------------------------------------


 INCAR:
   ENCUT = 400.000000
   SIGMA = 0.020000
   EDIFFG = -5.00e-02
   GGA = PE
   PREC = Accurate
   IBRION = 1
   ISMEAR = 0
   ISPIN = 2
   ISTART = 0
   ISYM = -1
   NELM = 120
   NSW = 40
   NCORE = 20
   LCHARG = .FALSE.
   LWAVE = .FALSE.

 POTCAR:    PAW_PBE Ni 02Aug2007                  
 POTCAR:    PAW_PBE H 15Jun2001                   
 -----------------------------------------------------------------------------
|                                                                             |
|           W    W    AA    RRRRR   N    N  II  N    N   GGGG   !!!           |
|           W    W   A  A   R    R  NN   N  II  NN   N  G    G  !!!           |
|           W    W  A    A  R    R  N N  N  II  N N  N  G       !!!           |
|           W WW W  AAAAAA  RRRRR   N  N N  II  N  N N  G  GGG   !            |
|           WW  WW  A    A  R   R   N   NN  II  N   NN  G    G                |
|           W    W  A    A  R    R  N    N  II  N    N   GGGG   !!!           |
|                                                                             |
|     You use a magnetic or noncollinear calculation, but did not specify     |
|     the initial magnetic moment with the MAGMOM tag. Note that a            |
|     default of 1 will be used for all atoms. This ferromagnetic setup       |
|     may break the symmetry of the crystal, in particular it may rule        |
|     out finding an antiferromagnetic solution. Thence, we recommend         |
|     setting the initial magnetic moment manually or verifying carefully     |
|     that this magnetic setup is desired.                                    |
|                                                                             |
 -----------------------------------------------------------------------------

 -----------------------------------------------------------------------------
|                                                                             |
|           W    W    AA    RRRRR   N    N  II  N    N   GGGG   !!!           |
|           W    W   A  A   R    R  NN   N  II  NN   N  G    G  !!!           |
|           W    W  A    A  R    R  N N  N  II  N N  N  G       !!!           |
|           W WW W  AAAAAA  RRRRR   N  N N  II  N  N N  G  GGG   !            |
|           WW  WW  A    A  R   R   N   NN  II  N   NN  G    G                |
|           W    W  A    A  R    R  N    N  II  N    N   GGGG   !!!           |
|                                                                             |
|     For optimal performance we recommend to set                             |
|       NCORE = 2 up to number-of-cores-per-socket                            |
|     NCORE specifies how many cores store one orbital (NPAR=cpu/NCORE).      |
|     This setting can greatly improve the performance of VASP for DFT.       |
|     The default, NCORE=1 might be grossly inefficient on modern             |
|     multi-core architectures or massively parallel machines. Do your        |
|     own testing! More info at https://www.vasp.at/wiki/index.php/NCORE      |
|     Unfortunately you need to use the default for GW and RPA                |
|     calculations (for HF NCORE is supported but not extensively tested      |
|     yet).                                                                   |
|                                                                             |
 -----------------------------------------------------------------------------

 POTCAR:    PAW_PBE Ni 02Aug2007                  
   VRHFIN =Ni:                                                                                      
   LEXCH  = PE                                                                                      
   EATOM  =  1077.6739 eV,   79.2068 Ry                                                             
                                                                                                    
   TITEL  = PAW_PBE Ni 02Aug2007                                                                    
   LULTRA =        F    use ultrasoft PP ?                                                          
   IUNSCR =        1    unscreen: 0-lin 1-nonlin 2-no                                               
   RPACOR =    2.000    partial core radius                                                         
   POMASS =   58.690; ZVAL   =   10.000    mass and valenz                                          
   RCORE  =    2.300    outmost cutoff radius                                                       
   RWIGS  =    2.430; RWIGS  =    1.286    wigner-seitz radius (au A)                               
   ENMAX  =  269.532; ENMIN  =  202.149 eV                                                          
   RCLOC  =    1.201    cutoff for local pot                                                        
   LCOR   =        T    correct aug charges                                                         
   LPAW   =        T    paw PP                                                                      
   EAUG   =  544.565                                                                                
   DEXC   =    0.000                                                                                
   RMAX   =    2.357    core radius for proj-oper                                                   
   RAUG   =    1.300    factor for augmentation sphere                                              
   RDEP   =    2.390    radius for radial grids                                                     
   RDEPT  =    1.838    core radius for aug-charge                                                  
                                                                                                    
   Atomic configuration                                                                             
    9 entries                                                                                       
     n  l   j            E        occ.                                                              
     1  0  0.50     -8206.4253   2.0000                                                             
     2  0  0.50      -976.1748   2.0000                                                             
     2  1  1.50      -839.0571   6.0000                                                             
     3  0  0.50      -105.9991   2.0000                                                             
     3  1  1.50       -66.4603   6.0000                                                             
     3  2  2.50        -4.6458   9.0000                                                             
     4  0  0.50        -4.4926   1.0000                                                             
     4  1  1.50        -4.0817   0.0000                                                             
     4  3  2.50        -1.3606   0.0000                                                             
   Description                                                                                      
     l       E           TYP  RCUT    TYP  RCUT                                                     
     2     -4.6457903     23  2.300                                                                 
     2     -6.0063729     23  2.300                                                                 
     0     -4.4925590     23  2.300                                                                 
     0      5.0102601     23  2.300                                                                 
     1     -2.7211652     23  2.300                                                                 
     1     16.5183231     23  2.300                                                                 
  local pseudopotential read in
  partial core-charges read in
  partial kinetic energy density read in
  atomic valenz-charges read in
  non local Contribution for L=           2  read in
    real space projection operators read in
  non local Contribution for L=           2  read in
    real space projection operators read in
  non local Contribution for L=           0  read in
    real space projection operators read in
  non local Contribution for L=           0  read in
    real space projection operators read in
  non local Contribution for L=           1  read in
    real space projection operators read in
  non local Contribution for L=           1  read in
    real space projection operators read in
    PAW grid and wavefunctions read in
 
   number of l-projection  operators is LMAX  =           6
   number of lm-projection operators is LMMAX =          18
 
 POTCAR:    PAW_PBE H 15Jun2001                   
   VRHFIN =H: ultrasoft test                                                                        
   LEXCH  = PE                                                                                      
   EATOM  =    12.4884 eV,    0.9179 Ry                                                             
                                                                                                    
   TITEL  = PAW_PBE H 15Jun2001                                                                     
   LULTRA =        F    use ultrasoft PP ?                                                          
   IUNSCR =        0    unscreen: 0-lin 1-nonlin 2-no                                               
   RPACOR =    0.000    partial core radius                                                         
   POMASS =    1.000; ZVAL   =    1.000    mass and valenz                                          
   RCORE  =    1.100    outmost cutoff radius                                                       
   RWIGS  =    0.700; RWIGS  =    0.370    wigner-seitz radius (au A)                               
   ENMAX  =  250.000; ENMIN  =  200.000 eV                                                          
   RCLOC  =    0.701    cutoff for local pot                                                        
   LCOR   =        T    correct aug charges                                                         
   LPAW   =        T    paw PP                                                                      
   EAUG   =  400.000                                                                                
   RMAX   =    1.123    core radius for proj-oper                                                   
   RAUG   =    1.200    factor for augmentation sphere                                              
   RDEP   =    1.112    radius for radial grids                                                     
   RDEPT  =    0.926    core radius for aug-charge                                                  
                                                                                                    
   Atomic configuration                                                                             
    2 entries                                                                                       
     n  l   j            E        occ.                                                              
     1  0  0.50        -6.4927   1.0000                                                             
     2  1  0.50        -3.4015   0.0000                                                             
   Description                                                                                      
     l       E           TYP  RCUT    TYP  RCUT                                                     
     0     -6.4927494     23  1.100                                                                 
     0      6.8029130     23  1.100                                                                 
     1     -4.0817478     23  1.100                                                                 
  local pseudopotential read in
  atomic valenz-charges read in
  non local Contribution for L=           0  read in
    real space projection operators read in
  non local Contribution for L=           0  read in
    real space projection operators read in
  non local Contribution for L=           1  read in
    real space projection operators read in
    PAW grid and wavefunctions read in
 
   number of l-projection  operators is LMAX  =           3
   number of lm-projection operators is LMMAX =           5
 
 -----------------------------------------------------------------------------
|                                                                             |
|               ----> ADVICE to this user running VASP <----                  |
|                                                                             |
|     You have a (more or less) 'large supercell' and for larger cells it     |
|     might be more efficient to use real-space projection operators.         |
|     Therefore, try LREAL= Auto in the INCAR file.                           |
|     Mind: For very accurate calculation, you might also keep the            |
|     reciprocal projection scheme (i.e. LREAL=.FALSE.).                      |
|                                                                             |
 -----------------------------------------------------------------------------

  PAW_PBE Ni 02Aug2007                  :
 energy of atom  1       EATOM=-1077.6739
 kinetic energy error for atom=    0.0101 (will be added to EATOM!!)
  PAW_PBE H 15Jun2001                   :
 energy of atom  2       EATOM=  -12.4884
 kinetic energy error for atom=    0.0098 (will be added to EATOM!!)
 
 
 POSCAR: Ni  H
  positions in cartesian coordinates
  No initial velocities read in
 exchange correlation table for  LEXCH =        8
   RHO(1)=    0.500       N(1)  =     2000
   RHO(2)=  100.500       N(2)  =     4000

 VTST: version 4.2, (08/11/21)

 CHAIN: initializing optimizer
 
 OPT: Using VASP QUASI-newton optimizer
 CHAIN: Read ICHAIN            0
 
 POSCAR: Ni  H
  positions in cartesian coordinates
  No initial velocities read in
 


--------------------------------------------------------------------------------------------------------


 ion  position               nearest neighbor table
   1  0.249  0.467  0.382-   9 2.34   8 2.34  22 2.45  21 2.46  30 2.59  10 2.99
   2  0.471  0.471  0.686-  27 2.40   5 2.42  24 2.47  25 2.47  15 2.57  16 2.57
   3  0.565  0.685  0.391-  28 2.38  17 2.43  12 2.46   6 2.47  13 2.55  20 2.65
   4  0.576  0.268  0.387-  29 2.38  18 2.43  11 2.46   7 2.46  14 2.56  19 2.65
   5  0.330  0.467  0.631-  27 2.41   2 2.42  22 2.46  21 2.47  15 2.56  16 2.56
   6  0.661  0.629  0.498-  12 2.41  26 2.42  13 2.45   3 2.47  28 2.51  24 2.51
   7  0.670  0.326  0.495-  11 2.41  26 2.43  14 2.46   4 2.46  29 2.50  25 2.51
   8  0.321  0.588  0.343-   1 2.34  17 2.38  20 2.44  30 2.50  10 2.55  21 2.58
   9  0.328  0.351  0.342-   1 2.34  18 2.38  19 2.44  30 2.50  10 2.56  22 2.58
  10  0.386  0.472  0.256-  30 2.30   8 2.55   9 2.56  18 2.57  17 2.58  23 2.66   1 2.99
  11  0.540  0.262  0.536-  19 2.39   7 2.41  25 2.42   4 2.46  16 2.47  29 2.63
  12  0.528  0.685  0.540-  20 2.39   6 2.41  24 2.43   3 2.46  15 2.46  28 2.61
  13  0.658  0.559  0.362-  28 2.40  23 2.41   6 2.45  26 2.49   3 2.55  14 2.56
  14  0.663  0.399  0.360-  29 2.40  23 2.41   7 2.46  26 2.50  13 2.56   4 2.56
  15  0.418  0.598  0.603-  27 2.34  12 2.46  21 2.52  24 2.52  20 2.54   5 2.56   2 2.57
  16  0.424  0.341  0.603-  27 2.34  11 2.47  25 2.53  19 2.53  22 2.55   5 2.56   2 2.57
  17  0.466  0.600  0.312-  23 2.33   8 2.38  20 2.43   3 2.43  28 2.56  10 2.58  30 2.63
  18  0.474  0.349  0.310-  23 2.33   9 2.38   4 2.43  19 2.44  29 2.56  10 2.57  30 2.62
  19  0.427  0.306  0.449-  29 2.36  22 2.38  11 2.39  18 2.44   9 2.44  16 2.53   4 2.65  30 2.79
                            27 3.01
  20  0.417  0.640  0.450-  28 2.37  21 2.38  12 2.39  17 2.43   8 2.44  15 2.54   3 2.65  30 2.83

  21  0.314  0.544  0.498-  20 2.38  22 2.43   1 2.46   5 2.47  30 2.51  15 2.52  27 2.52   8 2.58

  22  0.317  0.392  0.497-  19 2.38  21 2.43   1 2.45   5 2.46  27 2.51  30 2.52  16 2.55   9 2.58

  23  0.543  0.476  0.310-  18 2.33  17 2.33  14 2.41  13 2.41  29 2.49  28 2.51  30 2.55  10 2.66

  24  0.568  0.550  0.596-  12 2.43  28 2.43  25 2.43   2 2.47  26 2.50  27 2.50   6 2.51  15 2.52

  25  0.572  0.398  0.595-  11 2.42  24 2.43  29 2.44   2 2.47  27 2.48  26 2.51   7 2.51  16 2.53

  26  0.662  0.478  0.495-   6 2.42   7 2.43  29 2.44  28 2.46  13 2.49  24 2.50  14 2.50  25 2.51

  27  0.447  0.470  0.538-  30 2.32  16 2.34  15 2.34  29 2.38  28 2.38   2 2.40   5 2.41  25 2.48
                            24 2.50  22 2.51  21 2.52  19 3.01
  28  0.535  0.551  0.448-  20 2.37   3 2.38  27 2.38  13 2.40  29 2.42  24 2.43  26 2.46  30 2.50
                            23 2.51   6 2.51  17 2.56  12 2.61
  29  0.541  0.400  0.446-  19 2.36  27 2.38   4 2.38  14 2.40  28 2.42  25 2.44  26 2.44  23 2.49
                             7 2.50  30 2.51  18 2.56  11 2.63
  30  0.410  0.471  0.398-  10 2.30  27 2.32   9 2.50   8 2.50  28 2.50  21 2.51  29 2.51  22 2.52
                            23 2.55   1 2.59  18 2.62  17 2.63  19 2.79  20 2.83
  31  0.543  0.648  0.675-
  32  0.471  0.701  0.659-
 

IMPORTANT INFORMATION: All symmetrisations will be switched off!
NOSYMM: (Re-)initialisation of all symmetry stuff for point group C_1.


----------------------------------------------------------------------------------------

                                     Primitive cell                                     

  volume of cell :    4096.0000

  direct lattice vectors                    reciprocal lattice vectors
    16.000000000  0.000000000  0.000000000     0.062500000  0.000000000  0.000000000
     0.000000000 16.000000000  0.000000000     0.000000000  0.062500000  0.000000000
     0.000000000  0.000000000 16.000000000     0.000000000  0.000000000  0.062500000

  length of vectors
    16.000000000 16.000000000 16.000000000     0.062500000  0.062500000  0.062500000

  position of ions in fractional coordinates (direct lattice)
     0.248907746  0.467161032  0.382275005
     0.470752996  0.470836036  0.686032823
     0.565099294  0.684870936  0.391078104
     0.576410771  0.267956481  0.387017439
     0.329819213  0.467372073  0.631327091
     0.661221272  0.629312913  0.498101764
     0.669507972  0.326400054  0.494731660
     0.321378151  0.588342011  0.343375866
     0.328160090  0.350809724  0.341903746
     0.386400522  0.472249463  0.255752101
     0.539661862  0.262367359  0.536299133
     0.527962495  0.684913483  0.540095180
     0.658090472  0.559048608  0.362254571
     0.663071430  0.399389288  0.359679291
     0.417911324  0.597685051  0.603273089
     0.424386623  0.341083149  0.602939498
     0.466301454  0.600045930  0.312435527
     0.473500705  0.348574205  0.310065756
     0.427100088  0.305784901  0.448649396
     0.417068150  0.640179416  0.450454613
     0.313973587  0.544037933  0.498104941
     0.316829134  0.392350509  0.497453929
     0.543111385  0.476336341  0.310420644
     0.568022907  0.549754692  0.596220848
     0.571826503  0.397663366  0.595051948
     0.662048441  0.477881222  0.494675927
     0.447390906  0.470078652  0.537565434
     0.534960301  0.550651050  0.447995995
     0.540563381  0.399696733  0.445842461
     0.409784333  0.471463839  0.397740568
     0.542749685  0.648038884  0.675488929
     0.471437224  0.700664113  0.658952241

  ion indices of the primitive-cell ions
   primitive index   ion index
                 1           1
                 2           2
                 3           3
                 4           4
                 5           5
                 6           6
                 7           7
                 8           8
                 9           9
                10          10
                11          11
                12          12
                13          13
                14          14
                15          15
                16          16
                17          17
                18          18
                19          19
                20          20
                21          21
                22          22
                23          23
                24          24
                25          25
                26          26
                27          27
                28          28
                29          29
                30          30
                31          31
                32          32

----------------------------------------------------------------------------------------

 
 
 KPOINTS: KPOINTS created by Atomic Simulation Env

Automatic generation of k-mesh.
 Grid dimensions read from file:
 generate k-points for:    1    1    1

 Generating k-lattice:

  Cartesian coordinates                     Fractional coordinates (reciprocal lattice)
     0.062500000  0.000000000  0.000000000     1.000000000  0.000000000  0.000000000
     0.000000000  0.062500000  0.000000000     0.000000000  1.000000000  0.000000000
     0.000000000  0.000000000  0.062500000     0.000000000  0.000000000  1.000000000

  Length of vectors
     0.062500000  0.062500000  0.062500000

  Shift w.r.t. Gamma in fractional coordinates (k-lattice)
     0.000000000  0.000000000  0.000000000

 
 Subroutine IBZKPT returns following result:
 ===========================================
 
 Found      1 irreducible k-points:
 
 Following reciprocal coordinates:
            Coordinates               Weight
  0.000000  0.000000  0.000000      1.000000
 
 Following cartesian coordinates:
            Coordinates               Weight
  0.000000  0.000000  0.000000      1.000000
 


--------------------------------------------------------------------------------------------------------




 Dimension of arrays:
   k-points           NKPTS =      1   k-points in BZ     NKDIM =      1   number of bands    NBANDS=    198
   number of dos      NEDOS =    301   number of ions     NIONS =     32
   non local maximal  LDIM  =      6   non local SUM 2l+1 LMDIM =     18
   total plane-waves  NPLWV = ******
   max r-space proj   IRMAX =      1   max aug-charges    IRDMAX=  10167
   dimension x,y,z NGX =   108 NGY =  108 NGZ =  108
   dimension x,y,z NGXF=   216 NGYF=  216 NGZF=  216
   support grid    NGXF=   216 NGYF=  216 NGZF=  216
   ions per type =              30   2
   NGX,Y,Z   is equivalent  to a cutoff of  11.22, 11.22, 11.22 a.u.
   NGXF,Y,Z  is equivalent  to a cutoff of  22.44, 22.44, 22.44 a.u.

 SYSTEM =  unknown system                          
 POSCAR =  Ni  H                                   

 Startparameter for this run:
   NWRITE =      2    write-flag & timer
   PREC   = accura    normal or accurate (medium, high low for compatibility)
   ISTART =      0    job   : 0-new  1-cont  2-samecut
   ICHARG =      2    charge: 1-file 2-atom 10-const
   ISPIN  =      2    spin polarized calculation?
   LNONCOLLINEAR =      F non collinear calculations
   LSORBIT =      F    spin-orbit coupling
   INIWAV =      1    electr: 0-lowe 1-rand  2-diag
   LASPH  =      F    aspherical Exc in radial PAW
 Electronic Relaxation 1
   ENCUT  =  400.0 eV  29.40 Ry    5.42 a.u.  26.09 26.09 26.09*2*pi/ulx,y,z
   ENINI  =  400.0     initial cutoff
   ENAUG  =  544.6 eV  augmentation charge cutoff
   NELM   =    120;   NELMIN=  2; NELMDL= -5     # of ELM steps 
   EDIFF  = 0.1E-03   stopping-criterion for ELM
   LREAL  =      F    real-space projection
   NLSPLINE    = F    spline interpolate recip. space projectors
   LCOMPAT=      F    compatible to vasp.4.4
   GGA_COMPAT  = T    GGA compatible to vasp.4.4-vasp.4.6
   LMAXPAW     = -100 max onsite density
   LMAXMIX     =    2 max onsite mixed and CHGCAR
   VOSKOWN=      0    Vosko Wilk Nusair interpolation
   ROPT   =    0.00000   0.00000
 Ionic relaxation
   EDIFFG = -.5E-01   stopping-criterion for IOM
   NSW    =     40    number of steps for IOM
   NBLOCK =      1;   KBLOCK =     40    inner block; outer block 
   IBRION =      1    ionic relax: 0-MD 1-quasi-New 2-CG
   NFREE  =      0    steps in history (QN), initial steepest desc. (CG)
   ISIF   =      2    stress and relaxation
   IWAVPR =     11    prediction:  0-non 1-charg 2-wave 3-comb
   ISYM   =     -1    0-nonsym 1-usesym 2-fastsym
   LCORR  =      T    Harris-Foulkes like correction to forces

   POTIM  = 0.5000    time-step for ionic-motion
   TEIN   =    0.0    initial temperature
   TEBEG  =    0.0;   TEEND  =   0.0 temperature during run
   SMASS  =  -3.00    Nose mass-parameter (am)
   estimated Nose-frequenzy (Omega)   =  0.10E-29 period in steps = 0.13E+47 mass=  -0.585E-26a.u.
   SCALEE = 1.0000    scale energy and forces
   NPACO  =    256;   APACO  = 10.0  distance and # of slots for P.C.
   PSTRESS=    0.0 pullay stress

  Mass of Ions in am
   POMASS =  58.69  1.00
  Ionic Valenz
   ZVAL   =  10.00  1.00
  Atomic Wigner-Seitz radii
   RWIGS  =  -1.00 -1.00
  virtual crystal weights 
   VCA    =   1.00  1.00
   NELECT =     302.0000    total number of electrons
   NUPDOWN=      -1.0000    fix difference up-down

 DOS related values:
   EMIN   =  10.00;   EMAX   =-10.00  energy-range for DOS
   EFERMI =   0.00
   ISMEAR =     0;   SIGMA  =   0.02  broadening in eV -4-tet -1-fermi 0-gaus

 Electronic relaxation 2 (details)
   IALGO  =     38    algorithm
   LDIAG  =      T    sub-space diagonalisation (order eigenvalues)
   LSUBROT=      F    optimize rotation matrix (better conditioning)
   TURBO    =      0    0=normal 1=particle mesh
   IRESTART =      0    0=no restart 2=restart with 2 vectors
   NREBOOT  =      0    no. of reboots
   NMIN     =      0    reboot dimension
   EREF     =   0.00    reference energy to select bands
   IMIX   =      4    mixing-type and parameters
     AMIX     =   0.40;   BMIX     =  1.00
     AMIX_MAG =   1.60;   BMIX_MAG =  1.00
     AMIN     =   0.10
     WC   =   100.;   INIMIX=   1;  MIXPRE=   1;  MAXMIX= -45

 Intra band minimization:
   WEIMIN = 0.0010     energy-eigenvalue tresh-hold
   EBREAK =  0.13E-06  absolut break condition
   DEPER  =   0.30     relativ break condition  

   TIME   =   0.40     timestep for ELM

  volume/ion in A,a.u.               =     128.00       863.79
  Fermi-wavevector in a.u.,A,eV,Ry     =   0.686474  1.297247  6.411691  0.471246
  Thomas-Fermi vector in A             =   1.766712
 
 Write flags
   LWAVE        =      F    write WAVECAR
   LDOWNSAMPLE  =      F    k-point downsampling of WAVECAR
   LCHARG       =      F    write CHGCAR
   LVTOT        =      F    write LOCPOT, total local potential
   LVHAR        =      F    write LOCPOT, Hartree potential only
   LELF         =      F    write electronic localiz. function (ELF)
   LORBIT       =      0    0 simple, 1 ext, 2 COOP (PROOUT), +10 PAW based schemes


 Dipole corrections
   LMONO  =      F    monopole corrections only (constant potential shift)
   LDIPOL =      F    correct potential (dipole corrections)
   IDIPOL =      0    1-x, 2-y, 3-z, 4-all directions 
   EPSILON=  1.0000000 bulk dielectric constant

 Exchange correlation treatment:
   GGA     =    PE    GGA type
   LEXCH   =     8    internal setting for exchange type
   LIBXC   =     F    Libxc                    
   VOSKOWN =     0    Vosko Wilk Nusair interpolation
   LHFCALC =     F    Hartree Fock is set to
   LHFONE  =     F    Hartree Fock one center treatment
   AEXX    =    0.0000 exact exchange contribution

 Linear response parameters
   LEPSILON=     F    determine dielectric tensor
   LRPA    =     F    only Hartree local field effects (RPA)
   LNABLA  =     F    use nabla operator in PAW spheres
   LVEL    =     F    velocity operator in full k-point grid
   CSHIFT  =0.1000    complex shift for real part using Kramers Kronig
   OMEGAMAX=  -1.0    maximum frequency
   DEG_THRESHOLD= 0.2000000E-02 threshold for treating states as degnerate
   RTIME   =   -0.100 relaxation time in fs
  (WPLASMAI=    0.000 imaginary part of plasma frequency in eV, 0.658/RTIME)
   DFIELD  = 0.0000000 0.0000000 0.0000000 field for delta impulse in time
 
  Optional k-point grid parameters
   LKPOINTS_OPT  =     F    use optional k-point grid
   KPOINTS_OPT_MODE=     1    mode for optional k-point grid
 
 Orbital magnetization related:
   ORBITALMAG=     F  switch on orbital magnetization
   LCHIMAG   =     F  perturbation theory with respect to B field
   DQ        =  0.001000  dq finite difference perturbation B field
   LLRAUG    =     F  two centre corrections for induced B field



--------------------------------------------------------------------------------------------------------


 quasi-Newton-method for relaxation of ions
 charge density and potential will be updated during run
 spin polarized calculation
 Variant of blocked Davidson
 Davidson routine will perform the subspace rotation
 perform sub-space diagonalisation
    after iterative eigenvector-optimisation
 modified Broyden-mixing scheme, WC =      100.0
 initial mixing is a Kerker type mixing with AMIX =  0.4000 and BMIX =      1.0000
 Hartree-type preconditioning will be used
 using additional bands           47
 reciprocal scheme for non local part
 use partial core corrections
 calculate Harris-corrections to forces 
   (improved forces if not selfconsistent)
 use gradient corrections 
 use of overlap-Matrix (Vanderbilt PP)
 Gauss-broadening in eV      SIGMA  =   0.02


--------------------------------------------------------------------------------------------------------


  energy-cutoff  :      400.00
  volume of cell :     4096.00
      direct lattice vectors                 reciprocal lattice vectors
    16.000000000  0.000000000  0.000000000     0.062500000  0.000000000  0.000000000
     0.000000000 16.000000000  0.000000000     0.000000000  0.062500000  0.000000000
     0.000000000  0.000000000 16.000000000     0.000000000  0.000000000  0.062500000

  length of vectors
    16.000000000 16.000000000 16.000000000     0.062500000  0.062500000  0.062500000


 
 k-points in units of 2pi/SCALE and weight: KPOINTS created by Atomic Simulation Env
   0.00000000  0.00000000  0.00000000       1.000
 
 k-points in reciprocal lattice and weights: KPOINTS created by Atomic Simulation Env
   0.00000000  0.00000000  0.00000000       1.000
 
 position of ions in fractional coordinates (direct lattice) 
   0.24890775  0.46716103  0.38227500
   0.47075300  0.47083604  0.68603282
   0.56509929  0.68487094  0.39107810
   0.57641077  0.26795648  0.38701744
   0.32981921  0.46737207  0.63132709
   0.66122127  0.62931291  0.49810176
   0.66950797  0.32640005  0.49473166
   0.32137815  0.58834201  0.34337587
   0.32816009  0.35080972  0.34190375
   0.38640052  0.47224946  0.25575210
   0.53966186  0.26236736  0.53629913
   0.52796249  0.68491348  0.54009518
   0.65809047  0.55904861  0.36225457
   0.66307143  0.39938929  0.35967929
   0.41791132  0.59768505  0.60327309
   0.42438662  0.34108315  0.60293950
   0.46630145  0.60004593  0.31243553
   0.47350070  0.34857420  0.31006576
   0.42710009  0.30578490  0.44864940
   0.41706815  0.64017942  0.45045461
   0.31397359  0.54403793  0.49810494
   0.31682913  0.39235051  0.49745393
   0.54311139  0.47633634  0.31042064
   0.56802291  0.54975469  0.59622085
   0.57182650  0.39766337  0.59505195
   0.66204844  0.47788122  0.49467593
   0.44739091  0.47007865  0.53756543
   0.53496030  0.55065105  0.44799599
   0.54056338  0.39969673  0.44584246
   0.40978433  0.47146384  0.39774057
   0.54274968  0.64803888  0.67548893
   0.47143722  0.70066411  0.65895224
 
 position of ions in cartesian coordinates  (Angst):
   3.98252394  7.47457651  6.11640008
   7.53204794  7.53337658 10.97652516
   9.04158871 10.95793497  6.25724966
   9.22257233  4.28730369  6.19227903
   5.27710741  7.47795317 10.10123345
  10.57954035 10.06900661  7.96962822
  10.71212756  5.22240086  7.91570656
   5.14205041  9.41347217  5.49401386
   5.25056144  5.61295558  5.47045993
   6.18240836  7.55599140  4.09203361
   8.63458979  4.19787774  8.58078613
   8.44739992 10.95861572  8.64152288
  10.52944755  8.94477773  5.79607313
  10.60914288  6.39022860  5.75486866
   6.68658118  9.56296082  9.65236943
   6.79018596  5.45733039  9.64703197
   7.46082327  9.60073488  4.99896843
   7.57601128  5.57718728  4.96105209
   6.83360141  4.89255841  7.17839034
   6.67309040 10.24287066  7.20727380
   5.02357739  8.70460693  7.96967905
   5.06926615  6.27760815  7.95926287
   8.68978216  7.62138145  4.96673030
   9.08836651  8.79607507  9.53953357
   9.14922404  6.36261385  9.52083117
  10.59277505  7.64609955  7.91481484
   7.15825450  7.52125844  8.60104695
   8.55936482  8.81041680  7.16793592
   8.64901409  6.39514773  7.13347937
   6.55654933  7.54342142  6.36384908
   8.68399496 10.36862214 10.80782286
   7.54299559 11.21062580 10.54323586
 


--------------------------------------------------------------------------------------------------------


 k-point   1 :   0.0000 0.0000 0.0000  plane waves:   74269

 maximum and minimum number of plane-waves per node :      3721     3707

 maximum number of plane-waves:     74269
 maximum index in each direction: 
   IXMAX=   26   IYMAX=   26   IZMAX=   26
   IXMIN=  -26   IYMIN=  -26   IZMIN=  -26


 parallel 3D FFT for wavefunctions:
    minimum data exchange during FFTs selected (reduces bandwidth)
 parallel 3D FFT for charge:
    minimum data exchange during FFTs selected (reduces bandwidth)


 total amount of memory used by VASP MPI-rank0    84390. kBytes
=======================================================================

   base      :      30000. kBytes
   nonl-proj :       2972. kBytes
   fftplans  :      11290. kBytes
   grid      :      28180. kBytes
   one-center:         62. kBytes
   wavefun   :      11886. kBytes
 
     INWAV:  cpu time      0.0000: real time      0.0000
 Broyden mixing: mesh for mixing (old mesh)
   NGX = 53   NGY = 53   NGZ = 53
  (NGX  =216   NGY  =216   NGZ  =216)
  gives a total of 148877 points

 initial charge density was supplied:
 charge density of overlapping atoms calculated
 number of electron     302.0000000 magnetization      32.0000000
 keeping initial charge density in first step


--------------------------------------------------------------------------------------------------------


 Maximum index for augmentation-charges          532 (set IRDMAX)


--------------------------------------------------------------------------------------------------------


 First call to EWALD:  gamma=   0.111
 Maximum number of real-space cells 3x 3x 3
 Maximum number of reciprocal cells 3x 3x 3

    FEWALD:  cpu time      0.0022: real time      0.0022


--------------------------------------- Iteration      1(   1)  ---------------------------------------


    POTLOK:  cpu time      0.4490: real time      0.4765
    SETDIJ:  cpu time      0.0144: real time      0.0148
     EDDAV:  cpu time      3.6507: real time      3.6686
       DOS:  cpu time      0.0023: real time      0.0027
    --------------------------------------------
      LOOP:  cpu time      4.1163: real time      4.1626

 eigenvalue-minimisations  :   792
 total energy-change (2. order) : 0.1490849E+04  (-0.8749402E+04)
 number of electron     302.0000000 magnetization      32.0000000
 augmentation part      302.0000000 magnetization      32.0000000

 Free energy of the ion-electron system (eV)
  ---------------------------------------------------
  alpha Z        PSCENC =       113.16553179
  Ewald energy   TEWEN  =     53665.63893769
  -Hartree energ DENC   =    -83559.11731361
  -exchange      EXHF   =         0.00000000
  -V(xc)+E(xc)   XCENC  =       933.21383959
  PAW double counting   =     28888.58386782   -30893.72677109
  entropy T*S    EENTRO =        -0.01187288
  eigenvalues    EBANDS =       -11.76920971
  atomic energy  EATOM  =     32354.87237921
  Solvation  Ediel_sol  =         0.00000000
  ---------------------------------------------------
  free energy    TOTEN  =      1490.84938882 eV

  energy without entropy =     1490.86126170  energy(sigma->0) =     1490.85532526


--------------------------------------------------------------------------------------------------------




--------------------------------------- Iteration      1(   2)  ---------------------------------------


     EDDAV:  cpu time      3.7669: real time      3.7822
       DOS:  cpu time      0.0007: real time      0.0007
    --------------------------------------------
      LOOP:  cpu time      3.7675: real time      3.7828

 eigenvalue-minimisations  :   834
 total energy-change (2. order) :-0.1557961E+04  (-0.1500825E+04)
 number of electron     302.0000000 magnetization      32.0000000
 augmentation part      302.0000000 magnetization      32.0000000

 Free energy of the ion-electron system (eV)
  ---------------------------------------------------
  alpha Z        PSCENC =       113.16553179
  Ewald energy   TEWEN  =     53665.63893769
  -Hartree energ DENC   =    -83559.11731361
  -exchange      EXHF   =         0.00000000
  -V(xc)+E(xc)   XCENC  =       933.21383959
  PAW double counting   =     28888.58386782   -30893.72677109
  entropy T*S    EENTRO =        -0.01599814
  eigenvalues    EBANDS =     -1569.72589094
  atomic energy  EATOM  =     32354.87237921
  Solvation  Ediel_sol  =         0.00000000
  ---------------------------------------------------
  free energy    TOTEN  =       -67.11141768 eV

  energy without entropy =      -67.09541953  energy(sigma->0) =      -67.10341860


--------------------------------------------------------------------------------------------------------




--------------------------------------- Iteration      1(   3)  ---------------------------------------


     EDDAV:  cpu time      3.9089: real time      3.9229
       DOS:  cpu time      0.0007: real time      0.0007
    --------------------------------------------
      LOOP:  cpu time      3.9096: real time      3.9235

 eigenvalue-minimisations  :   880
 total energy-change (2. order) :-0.8311347E+02  (-0.7861765E+02)
 number of electron     302.0000000 magnetization      32.0000000
 augmentation part      302.0000000 magnetization      32.0000000

 Free energy of the ion-electron system (eV)
  ---------------------------------------------------
  alpha Z        PSCENC =       113.16553179
  Ewald energy   TEWEN  =     53665.63893769
  -Hartree energ DENC   =    -83559.11731361
  -exchange      EXHF   =         0.00000000
  -V(xc)+E(xc)   XCENC  =       933.21383959
  PAW double counting   =     28888.58386782   -30893.72677109
  entropy T*S    EENTRO =        -0.01677354
  eigenvalues    EBANDS =     -1652.83858684
  atomic energy  EATOM  =     32354.87237921
  Solvation  Ediel_sol  =         0.00000000
  ---------------------------------------------------
  free energy    TOTEN  =      -150.22488897 eV

  energy without entropy =     -150.20811543  energy(sigma->0) =     -150.21650220


--------------------------------------------------------------------------------------------------------




--------------------------------------- Iteration      1(   4)  ---------------------------------------


     EDDAV:  cpu time      3.8848: real time      3.9060
       DOS:  cpu time      0.0007: real time      0.0007
    --------------------------------------------
      LOOP:  cpu time      3.8855: real time      3.9067

 eigenvalue-minimisations  :   872
 total energy-change (2. order) :-0.2081274E+01  (-0.2050505E+01)
 number of electron     302.0000000 magnetization      32.0000000
 augmentation part      302.0000000 magnetization      32.0000000

 Free energy of the ion-electron system (eV)
  ---------------------------------------------------
  alpha Z        PSCENC =       113.16553179
  Ewald energy   TEWEN  =     53665.63893769
  -Hartree energ DENC   =    -83559.11731361
  -exchange      EXHF   =         0.00000000
  -V(xc)+E(xc)   XCENC  =       933.21383959
  PAW double counting   =     28888.58386782   -30893.72677109
  entropy T*S    EENTRO =        -0.02150911
  eigenvalues    EBANDS =     -1654.91512567
  atomic energy  EATOM  =     32354.87237921
  Solvation  Ediel_sol  =         0.00000000
  ---------------------------------------------------
  free energy    TOTEN  =      -152.30616337 eV

  energy without entropy =     -152.28465426  energy(sigma->0) =     -152.29540881


--------------------------------------------------------------------------------------------------------




--------------------------------------- Iteration      1(   5)  ---------------------------------------


     EDDAV:  cpu time      4.0093: real time      4.0250
       DOS:  cpu time      0.0007: real time      0.0007
    CHARGE:  cpu time      0.1787: real time      0.1791
    MIXING:  cpu time      0.0124: real time      0.0129
    --------------------------------------------
      LOOP:  cpu time      4.2011: real time      4.2177

 eigenvalue-minimisations  :   912
 total energy-change (2. order) :-0.4767454E-01  (-0.4759958E-01)
 number of electron     302.0000026 magnetization      30.8489371
 augmentation part      174.3016422 magnetization      24.9949870

 Broyden mixing:
  rms(total) = 0.42784E+01    rms(broyden)= 0.42776E+01
  rms(prec ) = 0.47191E+01
  weight for this iteration     100.00

 Free energy of the ion-electron system (eV)
  ---------------------------------------------------
  alpha Z        PSCENC =       113.16553179
  Ewald energy   TEWEN  =     53665.63893769
  -Hartree energ DENC   =    -83559.11731361
  -exchange      EXHF   =         0.00000000
  -V(xc)+E(xc)   XCENC  =       933.21383959
  PAW double counting   =     28888.58386782   -30893.72677109
  entropy T*S    EENTRO =        -0.02155517
  eigenvalues    EBANDS =     -1654.96275414
  atomic energy  EATOM  =     32354.87237921
  Solvation  Ediel_sol  =         0.00000000
  ---------------------------------------------------
  free energy    TOTEN  =      -152.35383791 eV

  energy without entropy =     -152.33228273  energy(sigma->0) =     -152.34306032


--------------------------------------------------------------------------------------------------------




--------------------------------------- Iteration      1(   6)  ---------------------------------------


    POTLOK:  cpu time      0.4406: real time      0.4606
    SETDIJ:  cpu time      0.0137: real time      0.0137
     EDDAV:  cpu time      3.7968: real time      3.8058
       DOS:  cpu time      0.0012: real time      0.0012
    CHARGE:  cpu time      0.1721: real time      0.1725
    MIXING:  cpu time      0.0092: real time      0.0098
    --------------------------------------------
      LOOP:  cpu time      4.4335: real time      4.4636

 eigenvalue-minimisations  :   830
 total energy-change (2. order) :-0.1613037E+02  (-0.1994830E+02)
 number of electron     302.0000037 magnetization      29.9498567
 augmentation part      191.3149925 magnetization      27.4451879

 Broyden mixing:
  rms(total) = 0.90065E+01    rms(broyden)= 0.90059E+01
  rms(prec ) = 0.10375E+02
  weight for this iteration     100.00

 eigenvalues of (default mixing * dielectric matrix)
  average eigenvalue GAMMA=   0.2239
  0.2239

 Free energy of the ion-electron system (eV)
  ---------------------------------------------------
  alpha Z        PSCENC =       113.16553179
  Ewald energy   TEWEN  =     53665.63893769
  -Hartree energ DENC   =    -83138.43466458
  -exchange      EXHF   =         0.00000000
  -V(xc)+E(xc)   XCENC  =       907.00024222
  PAW double counting   =     30152.76967207   -32058.39324148
  entropy T*S    EENTRO =        -0.01316811
  eigenvalues    EBANDS =     -2165.08989750
  atomic energy  EATOM  =     32354.87237921
  Solvation  Ediel_sol  =         0.00000000
  ---------------------------------------------------
  free energy    TOTEN  =      -168.48420868 eV

  energy without entropy =     -168.47104057  energy(sigma->0) =     -168.47762463


--------------------------------------------------------------------------------------------------------




--------------------------------------- Iteration      1(   7)  ---------------------------------------


    POTLOK:  cpu time      0.4360: real time      0.4483
    SETDIJ:  cpu time      0.0093: real time      0.0093
     EDDAV:  cpu time      3.8821: real time      3.8913
       DOS:  cpu time      0.0007: real time      0.0007
    CHARGE:  cpu time      0.1724: real time      0.1728
    MIXING:  cpu time      0.0090: real time      0.0090
    --------------------------------------------
      LOOP:  cpu time      4.5094: real time      4.5314

 eigenvalue-minimisations  :   872
 total energy-change (2. order) : 0.1694844E+02  (-0.1433199E+02)
 number of electron     302.0000038 magnetization      29.1432348
 augmentation part      194.3498741 magnetization      24.8285496

 Broyden mixing:
  rms(total) = 0.55214E+01    rms(broyden)= 0.55201E+01
  rms(prec ) = 0.61661E+01
  weight for this iteration     100.00

 eigenvalues of (default mixing * dielectric matrix)
  average eigenvalue GAMMA=   0.2443
  0.2951  0.1935

 Free energy of the ion-electron system (eV)
  ---------------------------------------------------
  alpha Z        PSCENC =       113.16553179
  Ewald energy   TEWEN  =     53665.63893769
  -Hartree energ DENC   =    -83148.19072352
  -exchange      EXHF   =         0.00000000
  -V(xc)+E(xc)   XCENC  =       909.52502683
  PAW double counting   =     30479.21139824   -32409.67410647
  entropy T*S    EENTRO =        -0.01321647
  eigenvalues    EBANDS =     -2116.07100012
  atomic energy  EATOM  =     32354.87237921
  Solvation  Ediel_sol  =         0.00000000
  ---------------------------------------------------
  free energy    TOTEN  =      -151.53577281 eV

  energy without entropy =     -151.52255635  energy(sigma->0) =     -151.52916458


--------------------------------------------------------------------------------------------------------




--------------------------------------- Iteration      1(   8)  ---------------------------------------


    POTLOK:  cpu time      0.4231: real time      0.4303
    SETDIJ:  cpu time      0.0092: real time      0.0093
     EDDAV:  cpu time      3.8677: real time      3.8768
       DOS:  cpu time      0.0008: real time      0.0008
    CHARGE:  cpu time      0.1711: real time      0.1715
    MIXING:  cpu time      0.0092: real time      0.0094
    --------------------------------------------
      LOOP:  cpu time      4.4812: real time      4.4981

 eigenvalue-minimisations  :   866
 total energy-change (2. order) : 0.5410684E+01  (-0.6426284E+01)
 number of electron     302.0000019 magnetization      28.4091757
 augmentation part      190.2643693 magnetization      23.2545033

 Broyden mixing:
  rms(total) = 0.65809E+01    rms(broyden)= 0.65801E+01
  rms(prec ) = 0.77378E+01
  weight for this iteration     100.00

 eigenvalues of (default mixing * dielectric matrix)
  average eigenvalue GAMMA=   0.2799
  0.5084  0.1656  0.1656

 Free energy of the ion-electron system (eV)
  ---------------------------------------------------
  alpha Z        PSCENC =       113.16553179
  Ewald energy   TEWEN  =     53665.63893769
  -Hartree energ DENC   =    -83325.17078684
  -exchange      EXHF   =         0.00000000
  -V(xc)+E(xc)   XCENC  =       914.13655400
  PAW double counting   =     30986.60419818   -32960.04505733
  entropy T*S    EENTRO =        -0.01514490
  eigenvalues    EBANDS =     -1895.31170086
  atomic energy  EATOM  =     32354.87237921
  Solvation  Ediel_sol  =         0.00000000
  ---------------------------------------------------
  free energy    TOTEN  =      -146.12508904 eV

  energy without entropy =     -146.10994414  energy(sigma->0) =     -146.11751659


--------------------------------------------------------------------------------------------------------




--------------------------------------- Iteration      1(   9)  ---------------------------------------


    POTLOK:  cpu time      0.4221: real time      0.4348
    SETDIJ:  cpu time      0.0092: real time      0.0092
     EDDAV:  cpu time      3.8534: real time      3.8626
       DOS:  cpu time      0.0008: real time      0.0008
    CHARGE:  cpu time      0.1715: real time      0.1719
    MIXING:  cpu time      0.0091: real time      0.0092
    --------------------------------------------
      LOOP:  cpu time      4.4661: real time      4.4885

 eigenvalue-minimisations  :   864
 total energy-change (2. order) : 0.5654761E+01  (-0.4061311E+01)
 number of electron     302.0000027 magnetization      28.0071555
 augmentation part      187.5866255 magnetization      22.0446478

 Broyden mixing:
  rms(total) = 0.60841E+01    rms(broyden)= 0.60834E+01
  rms(prec ) = 0.74405E+01
  weight for this iteration     100.00

 eigenvalues of (default mixing * dielectric matrix)
  average eigenvalue GAMMA=   0.2611
  0.5687  0.1881  0.1881  0.0995

 Free energy of the ion-electron system (eV)
  ---------------------------------------------------
  alpha Z        PSCENC =       113.16553179
  Ewald energy   TEWEN  =     53665.63893769
  -Hartree energ DENC   =    -83430.95602049
  -exchange      EXHF   =         0.00000000
  -V(xc)+E(xc)   XCENC  =       916.63645826
  PAW double counting   =     31352.92132603   -33353.85708115
  entropy T*S    EENTRO =        -0.01712829
  eigenvalues    EBANDS =     -1758.87473060
  atomic energy  EATOM  =     32354.87237921
  Solvation  Ediel_sol  =         0.00000000
  ---------------------------------------------------
  free energy    TOTEN  =      -140.47032755 eV

  energy without entropy =     -140.45319925  energy(sigma->0) =     -140.46176340


--------------------------------------------------------------------------------------------------------




--------------------------------------- Iteration      1(  10)  ---------------------------------------


    POTLOK:  cpu time      0.4234: real time      0.4365
    SETDIJ:  cpu time      0.0093: real time      0.0093
     EDDAV:  cpu time      4.0972: real time      4.1072
       DOS:  cpu time      0.0020: real time      0.0020
    CHARGE:  cpu time      0.1716: real time      0.1720
    MIXING:  cpu time      0.0099: real time      0.0100
    --------------------------------------------
      LOOP:  cpu time      4.7135: real time      4.7370

 eigenvalue-minimisations  :   936
 total energy-change (2. order) : 0.1000488E+01  (-0.3329807E+01)
 number of electron     302.0000035 magnetization      27.3110479
 augmentation part      186.0786697 magnetization      20.2952150

 Broyden mixing:
  rms(total) = 0.56707E+01    rms(broyden)= 0.56701E+01
  rms(prec ) = 0.66370E+01
  weight for this iteration     100.00

 eigenvalues of (default mixing * dielectric matrix)
  average eigenvalue GAMMA=   0.2927
  0.6345  0.4543  0.1666  0.1039  0.1039

 Free energy of the ion-electron system (eV)
  ---------------------------------------------------
  alpha Z        PSCENC =       113.16553179
  Ewald energy   TEWEN  =     53665.63893769
  -Hartree energ DENC   =    -83462.64158966
  -exchange      EXHF   =         0.00000000
  -V(xc)+E(xc)   XCENC  =       917.31463380
  PAW double counting   =     31517.16723346   -33527.56925489
  entropy T*S    EENTRO =        -0.01853508
  eigenvalues    EBANDS =     -1717.39917559
  atomic energy  EATOM  =     32354.87237921
  Solvation  Ediel_sol  =         0.00000000
  ---------------------------------------------------
  free energy    TOTEN  =      -139.46983927 eV

  energy without entropy =     -139.45130419  energy(sigma->0) =     -139.46057173


--------------------------------------------------------------------------------------------------------




--------------------------------------- Iteration      1(  11)  ---------------------------------------


    POTLOK:  cpu time      0.4228: real time      0.4291
    SETDIJ:  cpu time      0.0092: real time      0.0092
     EDDAV:  cpu time      4.1715: real time      4.1813
       DOS:  cpu time      0.0010: real time      0.0010
    CHARGE:  cpu time      0.1716: real time      0.1720
    MIXING:  cpu time      0.0095: real time      0.0095
    --------------------------------------------
      LOOP:  cpu time      4.7854: real time      4.8021

 eigenvalue-minimisations  :   960
 total energy-change (2. order) :-0.6499295E+01  (-0.3117059E+01)
 number of electron     302.0000026 magnetization      26.6702481
 augmentation part      185.8511855 magnetization      20.7854160

 Broyden mixing:
  rms(total) = 0.77544E+01    rms(broyden)= 0.77538E+01
  rms(prec ) = 0.92684E+01
  weight for this iteration     100.00

 eigenvalues of (default mixing * dielectric matrix)
  average eigenvalue GAMMA=   0.2987
  0.7672  0.5585  0.1472  0.1188  0.1188  0.0816

 Free energy of the ion-electron system (eV)
  ---------------------------------------------------
  alpha Z        PSCENC =       113.16553179
  Ewald energy   TEWEN  =     53665.63893769
  -Hartree energ DENC   =    -83483.84248877
  -exchange      EXHF   =         0.00000000
  -V(xc)+E(xc)   XCENC  =       916.38898023
  PAW double counting   =     31799.83202339   -33821.50406243
  entropy T*S    EENTRO =        -0.01312691
  eigenvalues    EBANDS =     -1690.50730885
  atomic energy  EATOM  =     32354.87237921
  Solvation  Ediel_sol  =         0.00000000
  ---------------------------------------------------
  free energy    TOTEN  =      -145.96913464 eV

  energy without entropy =     -145.95600773  energy(sigma->0) =     -145.96257119


--------------------------------------------------------------------------------------------------------




--------------------------------------- Iteration      1(  12)  ---------------------------------------


    POTLOK:  cpu time      0.4224: real time      0.4288
    SETDIJ:  cpu time      0.0091: real time      0.0092
     EDDAV:  cpu time      4.1183: real time      4.1281
       DOS:  cpu time      0.0035: real time      0.0035
    CHARGE:  cpu time      0.2018: real time      0.2023
    MIXING:  cpu time      0.0107: real time      0.0107
    --------------------------------------------
      LOOP:  cpu time      4.7660: real time      4.7827

 eigenvalue-minimisations  :   936
 total energy-change (2. order) : 0.1131686E+02  (-0.1897206E+01)
 number of electron     302.0000021 magnetization      26.4199579
 augmentation part      186.5154129 magnetization      21.0939454

 Broyden mixing:
  rms(total) = 0.46115E+01    rms(broyden)= 0.46105E+01
  rms(prec ) = 0.54349E+01
  weight for this iteration     100.00

 eigenvalues of (default mixing * dielectric matrix)
  average eigenvalue GAMMA=   0.2880
  0.8269  0.5699  0.1761  0.1761  0.0991  0.0991  0.0691

 Free energy of the ion-electron system (eV)
  ---------------------------------------------------
  alpha Z        PSCENC =       113.16553179
  Ewald energy   TEWEN  =     53665.63893769
  -Hartree energ DENC   =    -83492.46202362
  -exchange      EXHF   =         0.00000000
  -V(xc)+E(xc)   XCENC  =       916.17822295
  PAW double counting   =     31987.63517370   -34016.71782826
  entropy T*S    EENTRO =        -0.00653777
  eigenvalues    EBANDS =     -1662.95612637
  atomic energy  EATOM  =     32354.87237921
  Solvation  Ediel_sol  =         0.00000000
  ---------------------------------------------------
  free energy    TOTEN  =      -134.65227067 eV

  energy without entropy =     -134.64573290  energy(sigma->0) =     -134.64900178


--------------------------------------------------------------------------------------------------------




--------------------------------------- Iteration      1(  13)  ---------------------------------------


    POTLOK:  cpu time      0.4238: real time      0.4371
    SETDIJ:  cpu time      0.0091: real time      0.0092
     EDDAV:  cpu time      3.8028: real time      3.8119
       DOS:  cpu time      0.0014: real time      0.0014
    CHARGE:  cpu time      0.1719: real time      0.1723
    MIXING:  cpu time      0.0098: real time      0.0099
    --------------------------------------------
      LOOP:  cpu time      4.4188: real time      4.4416

 eigenvalue-minimisations  :   848
 total energy-change (2. order) : 0.4077431E+01  (-0.9037729E+00)
 number of electron     302.0000037 magnetization      26.1404901
 augmentation part      186.7390673 magnetization      21.1576007

 Broyden mixing:
  rms(total) = 0.34315E+01    rms(broyden)= 0.34310E+01
  rms(prec ) = 0.40380E+01
  weight for this iteration     100.00

 eigenvalues of (default mixing * dielectric matrix)
  average eigenvalue GAMMA=   0.2861
  0.9144  0.5418  0.2264  0.2264  0.1062  0.1062  0.0914  0.0765

 Free energy of the ion-electron system (eV)
  ---------------------------------------------------
  alpha Z        PSCENC =       113.16553179
  Ewald energy   TEWEN  =     53665.63893769
  -Hartree energ DENC   =    -83501.70863659
  -exchange      EXHF   =         0.00000000
  -V(xc)+E(xc)   XCENC  =       916.21426606
  PAW double counting   =     32066.38409766   -34099.18592978
  entropy T*S    EENTRO =        -0.00921022
  eigenvalues    EBANDS =     -1645.94627581
  atomic energy  EATOM  =     32354.87237921
  Solvation  Ediel_sol  =         0.00000000
  ---------------------------------------------------
  free energy    TOTEN  =      -130.57483998 eV

  energy without entropy =     -130.56562976  energy(sigma->0) =     -130.57023487


--------------------------------------------------------------------------------------------------------




--------------------------------------- Iteration      1(  14)  ---------------------------------------


    POTLOK:  cpu time      0.4221: real time      0.4293
    SETDIJ:  cpu time      0.0092: real time      0.0092
     EDDAV:  cpu time      3.9231: real time      3.9324
       DOS:  cpu time      0.0007: real time      0.0007
    CHARGE:  cpu time      0.1727: real time      0.1732
    MIXING:  cpu time      0.0100: real time      0.0101
    --------------------------------------------
      LOOP:  cpu time      4.5379: real time      4.5548

 eigenvalue-minimisations  :   882
 total energy-change (2. order) : 0.1571935E+01  (-0.7133310E+00)
 number of electron     302.0000019 magnetization      25.8746778
 augmentation part      186.7886935 magnetization      21.2028273

 Broyden mixing:
  rms(total) = 0.30470E+01    rms(broyden)= 0.30462E+01
  rms(prec ) = 0.35727E+01
  weight for this iteration     100.00

 eigenvalues of (default mixing * dielectric matrix)
  average eigenvalue GAMMA=   0.2751
  0.9434  0.4762  0.2879  0.2879  0.1108  0.1108  0.0943  0.0943  0.0705

 Free energy of the ion-electron system (eV)
  ---------------------------------------------------
  alpha Z        PSCENC =       113.16553179
  Ewald energy   TEWEN  =     53665.63893769
  -Hartree energ DENC   =    -83514.76775749
  -exchange      EXHF   =         0.00000000
  -V(xc)+E(xc)   XCENC  =       916.81400376
  PAW double counting   =     32147.74113040   -34184.39205006
  entropy T*S    EENTRO =        -0.01773692
  eigenvalues    EBANDS =     -1628.05734319
  atomic energy  EATOM  =     32354.87237921
  Solvation  Ediel_sol  =         0.00000000
  ---------------------------------------------------
  free energy    TOTEN  =      -129.00290481 eV

  energy without entropy =     -128.98516789  energy(sigma->0) =     -128.99403635


--------------------------------------------------------------------------------------------------------




--------------------------------------- Iteration      1(  15)  ---------------------------------------


    POTLOK:  cpu time      0.4222: real time      0.4301
    SETDIJ:  cpu time      0.0091: real time      0.0092
     EDDAV:  cpu time      3.8364: real time      3.8456
       DOS:  cpu time      0.0013: real time      0.0013
    CHARGE:  cpu time      0.1727: real time      0.1731
    MIXING:  cpu time      0.0108: real time      0.0108
    --------------------------------------------
      LOOP:  cpu time      4.4525: real time      4.4700

 eigenvalue-minimisations  :   858
 total energy-change (2. order) : 0.1334899E+01  (-0.4998266E+00)
 number of electron     302.0000029 magnetization      25.5417914
 augmentation part      186.5672521 magnetization      20.9098740

 Broyden mixing:
  rms(total) = 0.20516E+01    rms(broyden)= 0.20504E+01
  rms(prec ) = 0.23444E+01
  weight for this iteration     100.00

 eigenvalues of (default mixing * dielectric matrix)
  average eigenvalue GAMMA=   0.2760
  1.0845  0.3754  0.3754  0.2214  0.2214  0.1206  0.1091  0.1091  0.0716  0.0716

 Free energy of the ion-electron system (eV)
  ---------------------------------------------------
  alpha Z        PSCENC =       113.16553179
  Ewald energy   TEWEN  =     53665.63893769
  -Hartree energ DENC   =    -83527.22652111
  -exchange      EXHF   =         0.00000000
  -V(xc)+E(xc)   XCENC  =       917.30212368
  PAW double counting   =     32210.44813448   -34249.70763691
  entropy T*S    EENTRO =        -0.01996191
  eigenvalues    EBANDS =     -1612.14099303
  atomic energy  EATOM  =     32354.87237921
  Solvation  Ediel_sol  =         0.00000000
  ---------------------------------------------------
  free energy    TOTEN  =      -127.66800609 eV

  energy without entropy =     -127.64804418  energy(sigma->0) =     -127.65802513


--------------------------------------------------------------------------------------------------------




--------------------------------------- Iteration      1(  16)  ---------------------------------------


    POTLOK:  cpu time      0.4236: real time      0.4297
    SETDIJ:  cpu time      0.0092: real time      0.0092
     EDDAV:  cpu time      3.7868: real time      3.7958
       DOS:  cpu time      0.0008: real time      0.0008
    CHARGE:  cpu time      0.1741: real time      0.1745
    MIXING:  cpu time      0.0104: real time      0.0104
    --------------------------------------------
      LOOP:  cpu time      4.4049: real time      4.4204

 eigenvalue-minimisations  :   840
 total energy-change (2. order) :-0.7477815E+00  (-0.4347252E+00)
 number of electron     302.0000023 magnetization      25.1692612
 augmentation part      186.2969456 magnetization      20.2492962

 Broyden mixing:
  rms(total) = 0.24029E+01    rms(broyden)= 0.24023E+01
  rms(prec ) = 0.28146E+01
  weight for this iteration     100.00

 eigenvalues of (default mixing * dielectric matrix)
  average eigenvalue GAMMA=   0.3018
  1.2617  0.5093  0.5093  0.2453  0.2453  0.1077  0.1077  0.0975  0.0975  0.0691
  0.0691

 Free energy of the ion-electron system (eV)
  ---------------------------------------------------
  alpha Z        PSCENC =       113.16553179
  Ewald energy   TEWEN  =     53665.63893769
  -Hartree energ DENC   =    -83537.06617673
  -exchange      EXHF   =         0.00000000
  -V(xc)+E(xc)   XCENC  =       917.18222087
  PAW double counting   =     32287.85848469   -34329.10059688
  entropy T*S    EENTRO =        -0.01719928
  eigenvalues    EBANDS =     -1600.94936894
  atomic energy  EATOM  =     32354.87237921
  Solvation  Ediel_sol  =         0.00000000
  ---------------------------------------------------
  free energy    TOTEN  =      -128.41578759 eV

  energy without entropy =     -128.39858830  energy(sigma->0) =     -128.40718794


--------------------------------------------------------------------------------------------------------




--------------------------------------- Iteration      1(  17)  ---------------------------------------


    POTLOK:  cpu time      0.4227: real time      0.4349
    SETDIJ:  cpu time      0.0091: real time      0.0092
     EDDAV:  cpu time      4.0174: real time      4.0270
       DOS:  cpu time      0.0007: real time      0.0007
    CHARGE:  cpu time      0.1731: real time      0.1735
    MIXING:  cpu time      0.0106: real time      0.0106
    --------------------------------------------
      LOOP:  cpu time      4.6336: real time      4.6559

 eigenvalue-minimisations  :   912
 total energy-change (2. order) :-0.1988090E+00  (-0.3165414E+00)
 number of electron     302.0000033 magnetization      24.8420044
 augmentation part      186.5146639 magnetization      20.7875979

 Broyden mixing:
  rms(total) = 0.24962E+01    rms(broyden)= 0.24956E+01
  rms(prec ) = 0.29419E+01
  weight for this iteration     100.00

 eigenvalues of (default mixing * dielectric matrix)
  average eigenvalue GAMMA=   0.3008
  1.3540  0.5682  0.5682  0.2489  0.2489  0.1081  0.1081  0.0995  0.0995  0.0758
  0.0758  0.0549

 Free energy of the ion-electron system (eV)
  ---------------------------------------------------
  alpha Z        PSCENC =       113.16553179
  Ewald energy   TEWEN  =     53665.63893769
  -Hartree energ DENC   =    -83545.88273149
  -exchange      EXHF   =         0.00000000
  -V(xc)+E(xc)   XCENC  =       916.92897540
  PAW double counting   =     32371.54953773   -34413.96148915
  entropy T*S    EENTRO =        -0.01271824
  eigenvalues    EBANDS =     -1590.91301957
  atomic energy  EATOM  =     32354.87237921
  Solvation  Ediel_sol  =         0.00000000
  ---------------------------------------------------
  free energy    TOTEN  =      -128.61459662 eV

  energy without entropy =     -128.60187838  energy(sigma->0) =     -128.60823750


--------------------------------------------------------------------------------------------------------




--------------------------------------- Iteration      1(  18)  ---------------------------------------


    POTLOK:  cpu time      0.4230: real time      0.4348
    SETDIJ:  cpu time      0.0092: real time      0.0092
     EDDAV:  cpu time      3.8174: real time      3.8265
       DOS:  cpu time      0.0007: real time      0.0007
    CHARGE:  cpu time      0.1737: real time      0.1741
    MIXING:  cpu time      0.0108: real time      0.0108
    --------------------------------------------
      LOOP:  cpu time      4.4348: real time      4.4562

 eigenvalue-minimisations  :   840
 total energy-change (2. order) : 0.7343836E+00  (-0.2119109E+00)
 number of electron     302.0000028 magnetization      24.6687285
 augmentation part      186.5392690 magnetization      20.8190445

 Broyden mixing:
  rms(total) = 0.13052E+01    rms(broyden)= 0.13044E+01
  rms(prec ) = 0.14770E+01
  weight for this iteration     100.00

 eigenvalues of (default mixing * dielectric matrix)
  average eigenvalue GAMMA=   0.2909
  1.3790  0.5841  0.5841  0.2498  0.2498  0.1217  0.1135  0.1135  0.0965  0.0965
  0.0683  0.0683  0.0563

 Free energy of the ion-electron system (eV)
  ---------------------------------------------------
  alpha Z        PSCENC =       113.16553179
  Ewald energy   TEWEN  =     53665.63893769
  -Hartree energ DENC   =    -83553.46256219
  -exchange      EXHF   =         0.00000000
  -V(xc)+E(xc)   XCENC  =       916.57266102
  PAW double counting   =     32432.06243668   -34474.87423842
  entropy T*S    EENTRO =        -0.01416467
  eigenvalues    EBANDS =     -1581.84119409
  atomic energy  EATOM  =     32354.87237921
  Solvation  Ediel_sol  =         0.00000000
  ---------------------------------------------------
  free energy    TOTEN  =      -127.88021298 eV

  energy without entropy =     -127.86604831  energy(sigma->0) =     -127.87313064


--------------------------------------------------------------------------------------------------------




--------------------------------------- Iteration      1(  19)  ---------------------------------------


    POTLOK:  cpu time      0.4224: real time      0.4301
    SETDIJ:  cpu time      0.0092: real time      0.0093
     EDDAV:  cpu time      3.9471: real time      3.9565
       DOS:  cpu time      0.0012: real time      0.0012
    CHARGE:  cpu time      0.1722: real time      0.1726
    MIXING:  cpu time      0.0112: real time      0.0112
    --------------------------------------------
      LOOP:  cpu time      4.5634: real time      4.5808

 eigenvalue-minimisations  :   872
 total energy-change (2. order) : 0.1760996E+00  (-0.7467705E-01)
 number of electron     302.0000027 magnetization      24.2299500
 augmentation part      186.5943311 magnetization      20.5066873

 Broyden mixing:
  rms(total) = 0.77316E+00    rms(broyden)= 0.77258E+00
  rms(prec ) = 0.85878E+00
  weight for this iteration     100.00

 eigenvalues of (default mixing * dielectric matrix)
  average eigenvalue GAMMA=   0.3101
  1.3785  0.6963  0.6963  0.3955  0.2331  0.2331  0.1107  0.1107  0.1001  0.1001
  0.0881  0.0729  0.0729  0.0531

 Free energy of the ion-electron system (eV)
  ---------------------------------------------------
  alpha Z        PSCENC =       113.16553179
  Ewald energy   TEWEN  =     53665.63893769
  -Hartree energ DENC   =    -83556.68773442
  -exchange      EXHF   =         0.00000000
  -V(xc)+E(xc)   XCENC  =       916.42626722
  PAW double counting   =     32453.70925075   -34496.26472787
  entropy T*S    EENTRO =        -0.01582297
  eigenvalues    EBANDS =     -1578.54819476
  atomic energy  EATOM  =     32354.87237921
  Solvation  Ediel_sol  =         0.00000000
  ---------------------------------------------------
  free energy    TOTEN  =      -127.70411336 eV

  energy without entropy =     -127.68829039  energy(sigma->0) =     -127.69620187


--------------------------------------------------------------------------------------------------------




--------------------------------------- Iteration      1(  20)  ---------------------------------------


    POTLOK:  cpu time      0.4233: real time      0.4290
    SETDIJ:  cpu time      0.0092: real time      0.0092
     EDDAV:  cpu time      4.0779: real time      4.0876
       DOS:  cpu time      0.0010: real time      0.0010
    CHARGE:  cpu time      0.1733: real time      0.1737
    MIXING:  cpu time      0.0120: real time      0.0121
    --------------------------------------------
      LOOP:  cpu time      4.6967: real time      4.7125

 eigenvalue-minimisations  :   928
 total energy-change (2. order) :-0.5882721E+00  (-0.9657392E-01)
 number of electron     302.0000024 magnetization      23.9049133
 augmentation part      186.6637803 magnetization      20.3161581

 Broyden mixing:
  rms(total) = 0.14069E+01    rms(broyden)= 0.14066E+01
  rms(prec ) = 0.16102E+01
  weight for this iteration     100.00

 eigenvalues of (default mixing * dielectric matrix)
  average eigenvalue GAMMA=   0.3083
  1.3954  0.7642  0.7642  0.4203  0.2351  0.2351  0.1115  0.1115  0.1184  0.0947
  0.0947  0.0827  0.0720  0.0720  0.0530

 Free energy of the ion-electron system (eV)
  ---------------------------------------------------
  alpha Z        PSCENC =       113.16553179
  Ewald energy   TEWEN  =     53665.63893769
  -Hartree energ DENC   =    -83566.00931941
  -exchange      EXHF   =         0.00000000
  -V(xc)+E(xc)   XCENC  =       916.13298826
  PAW double counting   =     32483.27527926   -34524.38495279
  entropy T*S    EENTRO =        -0.01417244
  eigenvalues    EBANDS =     -1570.96905702
  atomic energy  EATOM  =     32354.87237921
  Solvation  Ediel_sol  =         0.00000000
  ---------------------------------------------------
  free energy    TOTEN  =      -128.29238544 eV

  energy without entropy =     -128.27821301  energy(sigma->0) =     -128.28529923


--------------------------------------------------------------------------------------------------------




--------------------------------------- Iteration      1(  21)  ---------------------------------------


    POTLOK:  cpu time      0.4228: real time      0.4295
    SETDIJ:  cpu time      0.0092: real time      0.0092
     EDDAV:  cpu time      3.7814: real time      3.7904
       DOS:  cpu time      0.0016: real time      0.0016
    CHARGE:  cpu time      0.1723: real time      0.1727
    MIXING:  cpu time      0.0117: real time      0.0117
    --------------------------------------------
      LOOP:  cpu time      4.3990: real time      4.4151

 eigenvalue-minimisations  :   840
 total energy-change (2. order) : 0.1060553E-01  (-0.7042007E-01)
 number of electron     302.0000027 magnetization      23.7310935
 augmentation part      186.6812256 magnetization      20.3313520

 Broyden mixing:
  rms(total) = 0.10683E+01    rms(broyden)= 0.10680E+01
  rms(prec ) = 0.12210E+01
  weight for this iteration     100.00

 eigenvalues of (default mixing * dielectric matrix)
  average eigenvalue GAMMA=   0.3051
  1.3880  0.7959  0.7959  0.3623  0.2595  0.2595  0.2393  0.1154  0.1154  0.0982
  0.0982  0.0793  0.0776  0.0776  0.0653  0.0533

 Free energy of the ion-electron system (eV)
  ---------------------------------------------------
  alpha Z        PSCENC =       113.16553179
  Ewald energy   TEWEN  =     53665.63893769
  -Hartree energ DENC   =    -83575.65939962
  -exchange      EXHF   =         0.00000000
  -V(xc)+E(xc)   XCENC  =       916.06902647
  PAW double counting   =     32505.24937169   -34545.78688510
  entropy T*S    EENTRO =        -0.01507798
  eigenvalues    EBANDS =     -1561.81566409
  atomic energy  EATOM  =     32354.87237921
  Solvation  Ediel_sol  =         0.00000000
  ---------------------------------------------------
  free energy    TOTEN  =      -128.28177992 eV

  energy without entropy =     -128.26670194  energy(sigma->0) =     -128.27424093


--------------------------------------------------------------------------------------------------------




--------------------------------------- Iteration      1(  22)  ---------------------------------------


    POTLOK:  cpu time      0.4233: real time      0.4355
    SETDIJ:  cpu time      0.0092: real time      0.0092
     EDDAV:  cpu time      3.8117: real time      3.8207
       DOS:  cpu time      0.0007: real time      0.0007
    CHARGE:  cpu time      0.1726: real time      0.1730
    MIXING:  cpu time      0.0122: real time      0.0122
    --------------------------------------------
      LOOP:  cpu time      4.4297: real time      4.4514

 eigenvalue-minimisations  :   848
 total energy-change (2. order) :-0.2677215E+00  (-0.4221472E-01)
 number of electron     302.0000025 magnetization      23.3345913
 augmentation part      186.6880424 magnetization      20.0406282

 Broyden mixing:
  rms(total) = 0.11168E+01    rms(broyden)= 0.11166E+01
  rms(prec ) = 0.12847E+01
  weight for this iteration     100.00

 eigenvalues of (default mixing * dielectric matrix)
  average eigenvalue GAMMA=   0.3175
  1.3645  0.8924  0.8924  0.4195  0.4195  0.2688  0.2688  0.1137  0.1137  0.1028
  0.1028  0.0860  0.0860  0.0738  0.0738  0.0660  0.0531

 Free energy of the ion-electron system (eV)
  ---------------------------------------------------
  alpha Z        PSCENC =       113.16553179
  Ewald energy   TEWEN  =     53665.63893769
  -Hartree energ DENC   =    -83580.46809143
  -exchange      EXHF   =         0.00000000
  -V(xc)+E(xc)   XCENC  =       915.96253329
  PAW double counting   =     32512.96011413   -34553.15693903
  entropy T*S    EENTRO =        -0.00960538
  eigenvalues    EBANDS =     -1557.51436171
  atomic energy  EATOM  =     32354.87237921
  Solvation  Ediel_sol  =         0.00000000
  ---------------------------------------------------
  free energy    TOTEN  =      -128.54950144 eV

  energy without entropy =     -128.53989606  energy(sigma->0) =     -128.54469875


--------------------------------------------------------------------------------------------------------




--------------------------------------- Iteration      1(  23)  ---------------------------------------


    POTLOK:  cpu time      0.4227: real time      0.4298
    SETDIJ:  cpu time      0.0091: real time      0.0091
     EDDAV:  cpu time      3.7678: real time      3.7767
       DOS:  cpu time      0.0008: real time      0.0008
    CHARGE:  cpu time      0.1712: real time      0.1716
    MIXING:  cpu time      0.0126: real time      0.0126
    --------------------------------------------
      LOOP:  cpu time      4.3841: real time      4.4007

 eigenvalue-minimisations  :   836
 total energy-change (2. order) :-0.3873472E+00  (-0.4138384E-01)
 number of electron     302.0000025 magnetization      22.8747832
 augmentation part      186.6964140 magnetization      19.8694017

 Broyden mixing:
  rms(total) = 0.86683E+00    rms(broyden)= 0.86666E+00
  rms(prec ) = 0.10041E+01
  weight for this iteration     100.00

 eigenvalues of (default mixing * dielectric matrix)
  average eigenvalue GAMMA=   0.3347
  1.3526  1.0358  1.0358  0.4999  0.4999  0.2531  0.2531  0.2130  0.1121  0.1121
  0.1228  0.0971  0.0971  0.0754  0.0754  0.0721  0.0639  0.0532

 Free energy of the ion-electron system (eV)
  ---------------------------------------------------
  alpha Z        PSCENC =       113.16553179
  Ewald energy   TEWEN  =     53665.63893769
  -Hartree energ DENC   =    -83591.38362087
  -exchange      EXHF   =         0.00000000
  -V(xc)+E(xc)   XCENC  =       915.78114366
  PAW double counting   =     32530.33193240   -34570.07609108
  entropy T*S    EENTRO =        -0.01510064
  eigenvalues    EBANDS =     -1547.25196077
  atomic energy  EATOM  =     32354.87237921
  Solvation  Ediel_sol  =         0.00000000
  ---------------------------------------------------
  free energy    TOTEN  =      -128.93684861 eV

  energy without entropy =     -128.92174797  energy(sigma->0) =     -128.92929829


--------------------------------------------------------------------------------------------------------




--------------------------------------- Iteration      1(  24)  ---------------------------------------


    POTLOK:  cpu time      0.4229: real time      0.4303
    SETDIJ:  cpu time      0.0091: real time      0.0091
     EDDAV:  cpu time      3.8271: real time      3.8361
       DOS:  cpu time      0.0009: real time      0.0008
    CHARGE:  cpu time      0.1723: real time      0.1727
    MIXING:  cpu time      0.0130: real time      0.0131
    --------------------------------------------
      LOOP:  cpu time      4.4452: real time      4.4621

 eigenvalue-minimisations  :   852
 total energy-change (2. order) :-0.4077308E+00  (-0.5998453E-01)
 number of electron     302.0000026 magnetization      22.1737346
 augmentation part      186.7048635 magnetization      19.4257761

 Broyden mixing:
  rms(total) = 0.84603E+00    rms(broyden)= 0.84574E+00
  rms(prec ) = 0.96897E+00
  weight for this iteration     100.00

 eigenvalues of (default mixing * dielectric matrix)
  average eigenvalue GAMMA=   0.3675
  1.5431  1.1111  1.1111  0.6376  0.6376  0.4549  0.2557  0.2557  0.1131  0.1131
  0.1195  0.0989  0.0989  0.0945  0.0748  0.0748  0.0721  0.0531  0.0638

 Free energy of the ion-electron system (eV)
  ---------------------------------------------------
  alpha Z        PSCENC =       113.16553179
  Ewald energy   TEWEN  =     53665.63893769
  -Hartree energ DENC   =    -83603.02346676
  -exchange      EXHF   =         0.00000000
  -V(xc)+E(xc)   XCENC  =       915.61945932
  PAW double counting   =     32552.43731855   -34591.68912476
  entropy T*S    EENTRO =        -0.01537571
  eigenvalues    EBANDS =     -1536.35023872
  atomic energy  EATOM  =     32354.87237921
  Solvation  Ediel_sol  =         0.00000000
  ---------------------------------------------------
  free energy    TOTEN  =      -129.34457939 eV

  energy without entropy =     -129.32920368  energy(sigma->0) =     -129.33689153


--------------------------------------------------------------------------------------------------------




--------------------------------------- Iteration      1(  25)  ---------------------------------------


[...]
 total charge-density along one line
 
 pseudopotential strength for first ion, spin component:           1
 -9.440   0.046   0.021   0.003  -0.011  -9.747   0.044   0.020
  0.046  -9.383   0.014   0.008  -0.019   0.044  -9.693   0.013
  0.021   0.014  -9.341  -0.065  -0.069   0.020   0.013  -9.653
  0.003   0.008  -0.065  -9.181   0.018   0.003   0.008  -0.062
 -0.011  -0.019  -0.069   0.018  -9.292  -0.010  -0.018  -0.066
 -9.747   0.044   0.020   0.003  -0.010  -9.999   0.042   0.019
  0.044  -9.693   0.013   0.008  -0.018   0.042  -9.947   0.013
  0.020   0.013  -9.653  -0.062  -0.066   0.019   0.013  -9.908
  0.003   0.008  -0.062  -9.500   0.017   0.003   0.008  -0.060
 -0.010  -0.018  -0.066   0.017  -9.606  -0.010  -0.017  -0.063
  0.001  -0.004  -0.006  -0.004  -0.023   0.001  -0.004  -0.006
  0.003  -0.007  -0.009  -0.008  -0.040   0.003  -0.007  -0.010
 -0.005  -0.008  -0.001   0.000   0.000  -0.005  -0.007  -0.001
  0.000  -0.001   0.001  -0.010   0.001   0.000  -0.001   0.000
  0.000   0.000   0.005  -0.005  -0.012   0.000   0.000   0.004
 -0.001  -0.007  -0.001   0.000   0.000  -0.001  -0.007  -0.001
  0.000  -0.001   0.003  -0.006   0.002   0.000  -0.001   0.003
  0.001   0.000   0.002  -0.004  -0.009   0.001   0.000   0.002
 pseudopotential strength for first ion, spin component:           2
 -8.650  -0.011  -0.003   0.005   0.006  -8.994  -0.011  -0.003
 -0.011  -8.718  -0.001  -0.009   0.001  -0.011  -9.059  -0.001
 -0.003  -0.001  -8.627   0.030  -0.066  -0.003  -0.001  -8.972
  0.005  -0.009   0.030  -8.630  -0.003   0.005  -0.009   0.029
  0.006   0.001  -0.066  -0.003  -8.726   0.006   0.001  -0.063
 -8.994  -0.011  -0.003   0.005   0.006  -9.280  -0.010  -0.003
 -0.011  -9.059  -0.001  -0.009   0.001  -0.010  -9.343  -0.001
 -0.003  -0.001  -8.972   0.029  -0.063  -0.003  -0.001  -9.259
  0.005  -0.009   0.029  -8.975  -0.003   0.005  -0.009   0.028
  0.006   0.001  -0.063  -0.003  -9.068   0.006   0.001  -0.060
  0.001   0.000  -0.003  -0.001  -0.012   0.001   0.000  -0.003
  0.001   0.000  -0.005  -0.002  -0.020   0.001   0.000  -0.005
 -0.016  -0.006  -0.000   0.000  -0.000  -0.015  -0.006  -0.000
  0.000  -0.000  -0.006  -0.017   0.000   0.000  -0.000  -0.005
 -0.000   0.000   0.009  -0.005  -0.017  -0.000   0.000   0.009
 -0.016  -0.005  -0.000   0.000  -0.000  -0.015  -0.005   0.000
  0.000   0.000  -0.006  -0.016   0.000   0.000   0.000  -0.006
 -0.000   0.000   0.009  -0.005  -0.016  -0.000   0.000   0.009
 total augmentation occupancy for first ion, spin component:           1
  2.605   0.240   0.051  -0.035  -0.026  -1.070  -0.154  -0.022   0.016   0.011  -0.010   0.000  -0.241   0.007   0.008  -0.003
  0.240   2.095   0.018   0.049  -0.029  -0.152  -0.529  -0.005  -0.017   0.013  -0.007   0.000  -0.082  -0.007   0.004  -0.003
  0.051   0.018   2.342  -0.170  -0.102  -0.024  -0.007  -0.691   0.005   0.055   0.228  -0.043  -0.009  -0.013   0.104   0.000
 -0.035   0.049  -0.170   2.989  -0.000   0.018  -0.021   0.008  -1.053  -0.011  -0.142   0.033   0.006  -0.220  -0.042  -0.000
 -0.026  -0.029  -0.102  -0.000   2.712   0.012   0.014   0.048  -0.015  -0.963   0.125   0.047   0.002   0.035  -0.135   0.000
 -1.070  -0.152  -0.024   0.018   0.012   1.225   0.108   0.014  -0.005  -0.009  -0.004   0.001   0.363  -0.002  -0.005  -0.033
 -0.154  -0.529  -0.007  -0.021   0.014   0.108   0.713   0.006   0.003  -0.009   0.008  -0.000   0.067   0.003  -0.002  -0.007
 -0.022  -0.005  -0.691   0.008   0.048   0.014   0.006   0.771   0.088  -0.012  -0.215   0.039   0.002   0.089  -0.149  -0.000
  0.016  -0.017   0.005  -1.053  -0.015  -0.005   0.003   0.088   0.985   0.043   0.147  -0.033  -0.002   0.295   0.052   0.000
  0.011   0.013   0.055  -0.011  -0.963  -0.009  -0.009  -0.012   0.043   1.041  -0.199  -0.027  -0.004  -0.018   0.188   0.000
 -0.010  -0.007   0.228  -0.142   0.125  -0.004   0.008  -0.215   0.147  -0.199   1.984  -0.207   0.002   0.102   0.348  -0.000
  0.000   0.000  -0.043   0.033   0.047   0.001  -0.000   0.039  -0.033  -0.027  -0.207   0.030  -0.000  -0.015  -0.055  -0.000
 -0.241  -0.082  -0.009   0.006   0.002   0.363   0.067   0.002  -0.002  -0.004   0.002  -0.000   0.183  -0.000  -0.001  -0.016
  0.007  -0.007  -0.013  -0.220   0.035  -0.002   0.003   0.089   0.295  -0.018   0.102  -0.015  -0.000   0.145   0.007  -0.000
  0.008   0.004   0.104  -0.042  -0.135  -0.005  -0.002  -0.149   0.052   0.188   0.348  -0.055  -0.001   0.007   0.147   0.000
 -0.003  -0.003   0.000  -0.000   0.000  -0.033  -0.007  -0.000   0.000   0.000  -0.000  -0.000  -0.016  -0.000   0.000   0.002
 -0.000  -0.001  -0.006  -0.009  -0.001   0.000  -0.000  -0.009  -0.028   0.001  -0.018   0.002  -0.000  -0.014  -0.002   0.000
 -0.001  -0.000   0.003  -0.003  -0.017   0.000   0.000   0.017  -0.007  -0.019  -0.060   0.008   0.000  -0.002  -0.021   0.000
 total augmentation occupancy for first ion, spin component:           2
  1.122  -0.164  -0.053  -0.005   0.040  -0.492   0.081   0.021   0.004  -0.016   0.009   0.004  -0.041  -0.000  -0.006  -0.011
 -0.164   0.881  -0.032  -0.044   0.059   0.077  -0.399   0.011   0.017  -0.028   0.010   0.001   0.026   0.004  -0.005  -0.002
 -0.053  -0.032   0.899   0.223   0.096   0.022   0.013  -0.385  -0.091  -0.069   0.019   0.002   0.003  -0.035   0.006   0.001
 -0.005  -0.044   0.223   0.477  -0.050   0.004   0.020  -0.095  -0.203   0.020   0.014  -0.001   0.000  -0.008   0.003   0.000
  0.040   0.059   0.096  -0.050   0.541  -0.017  -0.029  -0.059   0.024  -0.228   0.028   0.013  -0.005  -0.016   0.002  -0.000
 -0.492   0.077   0.022   0.004  -0.017   0.127  -0.034  -0.008  -0.003   0.006  -0.002  -0.001   0.002  -0.000   0.002   0.006
  0.081  -0.399   0.013   0.020  -0.029  -0.034   0.089  -0.003  -0.006   0.012  -0.005  -0.000  -0.014  -0.001   0.002   0.002
  0.021   0.011  -0.385  -0.095  -0.059  -0.008  -0.003   0.080   0.033   0.032  -0.016  -0.003  -0.000   0.006   0.005  -0.000
  0.004   0.017  -0.091  -0.203   0.024  -0.003  -0.006   0.033   0.021  -0.011  -0.009   0.002  -0.000  -0.009  -0.003  -0.000
 -0.016  -0.028  -0.069   0.020  -0.228   0.006   0.012   0.032  -0.011   0.016   0.002  -0.007   0.002   0.009  -0.012   0.000
  0.009   0.010   0.019   0.014   0.028  -0.002  -0.005  -0.016  -0.009   0.002  -0.123   0.040  -0.002  -0.014  -0.019   0.000
  0.004   0.001   0.002  -0.001   0.013  -0.001  -0.000  -0.003   0.002  -0.007   0.040  -0.006  -0.000   0.002   0.006  -0.000
 -0.041   0.026   0.003   0.000  -0.005   0.002  -0.014  -0.000  -0.000   0.002  -0.002  -0.000  -0.012   0.000   0.000   0.002
 -0.000   0.004  -0.035  -0.008  -0.016  -0.000  -0.001   0.006  -0.009   0.009  -0.014   0.002   0.000  -0.010   0.001  -0.000
 -0.006  -0.005   0.006   0.003   0.002   0.002   0.002   0.005  -0.003  -0.012  -0.019   0.006   0.000   0.001  -0.008   0.000
 -0.011  -0.002   0.001   0.000  -0.000   0.006   0.002  -0.000  -0.000   0.000   0.000  -0.000   0.002  -0.000   0.000  -0.000
  0.000   0.000  -0.006  -0.008   0.000  -0.000   0.000   0.003   0.005  -0.001   0.001  -0.000  -0.000   0.001  -0.000   0.000
 -0.001  -0.000   0.005  -0.000  -0.007   0.000   0.000  -0.003   0.001   0.005   0.003  -0.001   0.000   0.000   0.001   0.000


------------------------ aborting loop because EDIFF is reached ----------------------------------------


    CHARGE:  cpu time      0.1803: real time      0.1807
    FORLOC:  cpu time      0.0515: real time      0.0516
    FORNL :  cpu time      1.9824: real time      1.9871
    STRESS:  cpu time      1.9677: real time      1.9724
    FORCOR:  cpu time      0.4255: real time      0.4265
    FORHAR:  cpu time      0.0780: real time      0.0782
    MIXING:  cpu time      0.0097: real time      0.0097
    OFIELD:  cpu time      0.0000: real time      0.0000

  FORCE on cell =-STRESS in cart. coord.  units (eV):
  Direction    XX          YY          ZZ          XY          YZ          ZX
  --------------------------------------------------------------------------------------
  Alpha Z   113.16553   113.16553   113.16553
  Ewald   19150.79108 21142.20944 16413.82326    15.86507   502.30662   460.66257
  Hartree 29074.71250 30972.45451 26570.99980    17.98843   468.35298   423.60769
  E(xc)   -1652.03590 -1651.82153 -1652.34297    -0.01558     0.09091    -0.03326
  Local  -54029.50816-57924.78607-48809.68510   -33.79574  -971.16443  -885.19470
  n-local  -291.29193  -290.33831  -291.43126    -0.84307     0.73815    -0.02429
  augment  5282.44230  5286.44578  5295.24099     0.36643    -0.77806     0.81867
  Kinetic  2350.45316  2351.32959  2358.63327     0.46350     0.02375     0.11023
  Fock        0.00000     0.00000     0.00000     0.00000     0.00000     0.00000
  -------------------------------------------------------------------------------------
  Total      -1.27143    -1.34106    -1.59648     0.02904    -0.43008    -0.05309
  in kB      -0.49733    -0.52456    -0.62447     0.01136    -0.16823    -0.02077
  external pressure =       -0.55 kB  Pullay stress =        0.00 kB


 VOLUME and BASIS-vectors are now :
 -----------------------------------------------------------------------------
  energy-cutoff  :      400.00
  volume of cell :     4096.00
      direct lattice vectors                 reciprocal lattice vectors
    16.000000000  0.000000000  0.000000000     0.062500000  0.000000000  0.000000000
     0.000000000 16.000000000  0.000000000     0.000000000  0.062500000  0.000000000
     0.000000000  0.000000000 16.000000000     0.000000000  0.000000000  0.062500000

  length of vectors
    16.000000000 16.000000000 16.000000000     0.062500000  0.062500000  0.062500000


 FORCES acting on ions
    electron-ion (+dipol)            ewald-force                    non-local-force                 convergence-correction
 -----------------------------------------------------------------------------------------------
   0.166E+04 0.128E+02 0.493E+03   -.165E+04 -.129E+02 -.491E+03   -.584E+01 -.134E+00 -.202E+01   -.134E+00 0.232E+00 0.952E-01
   -.432E+02 0.887E+02 -.176E+04   0.421E+02 -.887E+02 0.175E+04   0.108E+01 -.979E-01 0.649E+01   -.437E-02 0.564E-01 0.251E-01
   -.497E+03 -.156E+04 0.594E+03   0.496E+03 0.156E+04 -.591E+03   0.119E+01 0.541E+01 -.343E+01   0.239E-01 -.319E-01 0.219E+00
   -.581E+03 0.149E+04 0.707E+03   0.579E+03 -.148E+04 -.704E+03   0.183E+01 -.504E+01 -.301E+01   -.391E-01 -.158E+00 0.940E-02
   0.125E+04 0.745E+02 -.129E+04   -.124E+04 -.738E+02 0.129E+04   -.476E+01 -.770E+00 0.390E+01   0.312E+00 0.293E-03 0.240E+00
   -.140E+04 -.101E+04 -.363E+03   0.140E+04 0.100E+04 0.362E+03   0.526E+01 0.227E+01 0.154E+01   -.139E+00 0.438E-01 0.215E+00
   -.144E+04 0.979E+03 -.328E+03   0.143E+04 -.977E+03 0.327E+03   0.485E+01 -.257E+01 0.112E+01   -.389E-01 0.726E-01 0.246E+00
   0.116E+04 -.105E+04 0.826E+03   -.116E+04 0.105E+04 -.824E+03   -.320E+01 0.359E+01 -.227E+01   -.760E-01 0.192E+00 0.101E+00
   0.113E+04 0.104E+04 0.875E+03   -.113E+04 -.104E+04 -.873E+03   -.297E+01 -.356E+01 -.266E+01   -.239E+00 0.559E-01 0.698E-01
   0.597E+03 -.466E+02 0.167E+04   -.594E+03 0.464E+02 -.166E+04   -.257E+01 -.442E-01 -.564E+01   -.166E+00 0.283E+00 -.714E-01
   -.296E+03 0.156E+04 -.684E+03   0.296E+03 -.156E+04 0.681E+03   0.687E+00 -.483E+01 0.210E+01   -.220E+00 0.298E-01 0.356E+00
   -.261E+03 -.151E+04 -.725E+03   0.260E+03 0.151E+04 0.725E+03   0.899E+00 0.227E+01 0.327E+00   0.852E-01 -.270E+00 0.583E-01
   -.134E+04 -.622E+03 0.966E+03   0.134E+04 0.619E+03 -.964E+03   0.324E+01 0.259E+01 -.304E+01   -.623E-02 0.307E+00 0.222E+00
   -.139E+04 0.490E+03 0.972E+03   0.139E+04 -.488E+03 -.968E+03   0.325E+01 -.221E+01 -.333E+01   0.101E+00 0.183E+00 -.526E-01
   0.609E+03 -.101E+04 -.123E+04   -.609E+03 0.101E+04 0.123E+04   -.107E+00 0.962E+00 0.239E+01   0.172E+00 -.270E+00 0.160E+00
   0.543E+03 0.119E+04 -.116E+04   -.542E+03 -.119E+04 0.116E+04   -.131E+01 -.197E+01 0.264E+01   0.216E-01 0.292E+00 0.382E+00
   0.412E+02 -.110E+04 0.133E+04   -.417E+02 0.110E+04 -.133E+04   0.624E+00 0.167E+01 -.226E+01   -.696E-01 0.259E+00 0.186E+00
   0.240E+02 0.103E+04 0.139E+04   -.246E+02 -.103E+04 -.139E+04   0.631E+00 -.134E+01 -.275E+01   -.372E-01 0.132E-01 -.675E-01
   0.610E+03 0.151E+04 0.748E+02   -.610E+03 -.151E+04 -.751E+02   -.209E+00 -.104E+01 -.170E+00   -.106E+00 -.850E-02 0.381E+00
   0.670E+03 -.147E+04 0.436E+01   -.669E+03 0.147E+04 -.539E+01   -.853E+00 0.128E+01 0.886E+00   0.574E-01 0.246E-01 0.148E+00
   0.146E+04 -.725E+03 -.430E+03   -.146E+04 0.723E+03 0.429E+03   -.178E+01 0.149E+01 0.304E+00   0.577E-01 0.677E-01 0.194E+00
   0.143E+04 0.810E+03 -.395E+03   -.143E+04 -.809E+03 0.394E+03   -.170E+01 -.115E+01 0.493E+00   -.275E-01 0.117E+00 0.382E+00
   -.575E+03 -.391E+02 0.154E+04   0.574E+03 0.391E+02 -.154E+04   0.506E+00 -.329E+00 -.769E+00   0.223E-01 0.320E+00 0.559E-01
   -.862E+03 -.491E+03 -.130E+04   0.862E+03 0.491E+03 0.130E+04   0.382E+00 0.428E+00 0.917E+00   -.210E+00 -.968E-02 0.260E+00
   -.862E+03 0.623E+03 -.128E+04   0.861E+03 -.622E+03 0.128E+04   0.774E+00 -.771E+00 0.123E+01   -.374E+00 0.392E+00 0.496E+00
   -.161E+04 -.166E+02 -.408E+03   0.161E+04 0.160E+02 0.407E+03   0.200E+01 0.149E+00 0.264E+00   -.201E+00 0.453E+00 0.351E+00
   0.271E+03 0.234E+02 -.635E+03   -.271E+03 -.230E+02 0.634E+03   -.327E+00 -.520E+00 0.302E+00   0.122E+00 0.123E+00 0.629E+00
   -.409E+03 -.579E+03 0.123E+03   0.409E+03 0.578E+03 -.123E+03   0.338E+00 0.221E+00 -.254E+00   0.697E-02 0.276E+00 0.427E+00
   -.432E+03 0.573E+03 0.175E+03   0.431E+03 -.573E+03 -.176E+03   0.345E+00 -.580E+00 0.121E+00   -.167E+00 0.305E+00 0.392E+00
   0.554E+03 0.279E+01 0.523E+03   -.554E+03 -.314E+01 -.523E+03   -.269E+00 -.285E-02 -.429E+00   -.619E-01 0.354E+00 0.310E+00
   -.605E+02 -.108E+03 -.164E+03   0.608E+02 0.109E+03 0.166E+03   -.238E+00 -.606E+00 -.165E+01   -.582E-02 -.411E-01 -.102E-01
   0.582E+02 -.160E+03 -.102E+03   -.591E+02 0.162E+03 0.102E+03   0.899E+00 -.134E+01 -.634E+00   0.648E-02 -.176E-01 0.510E-02
 -----------------------------------------------------------------------------------------------
   -.130E+01 0.293E+01 0.283E+01   -.213E-12 0.568E-13 -.114E-12   0.265E+01 -.659E+01 -.931E+01   -.134E+01 0.364E+01 0.641E+01
 
 
 POSITION                                       TOTAL-FORCE (eV/Angst)
 -----------------------------------------------------------------------------------
      4.11857      7.55486      6.18616         0.007147      0.002747      0.006864
      7.58229      7.42378     10.95389        -0.005072     -0.007814     -0.006759
      8.96549     10.99433      6.48439         0.014148     -0.000240     -0.009639
      9.10707      4.29834      6.20905         0.002523      0.001352     -0.006020
      5.38085      7.45897     10.08192        -0.006392     -0.009168      0.007544
     10.47461      9.98899      7.99204         0.017842     -0.005761      0.003823
     10.55542      5.26678      7.87534         0.009408     -0.005961      0.006791
      5.28708      9.45829      5.69056         0.000759      0.002260      0.023473
      5.33952      5.70885      5.60197         0.000582      0.003853      0.001703
      6.31212      7.66611      4.16884        -0.010645      0.016439      0.012136
      8.58398      4.20591      8.57813        -0.000379      0.002856     -0.009220
      8.44127     10.89070      8.86941         0.013410     -0.011150     -0.012852
     10.40270      8.93850      5.80933        -0.001041      0.002501      0.011423
     10.50265      6.49016      5.76867        -0.002626      0.002455      0.000758
      6.70788      9.51665      9.77917         0.021161     -0.014141      0.002013
      6.80878      5.48233      9.60303         0.001299     -0.012140      0.000565
      7.53363      9.63551      5.14604        -0.008713      0.009018      0.019174
      7.56231      5.61138      4.98037         0.002474      0.011048      0.001277
      6.86828      4.88548      7.19685        -0.002459     -0.003668     -0.005578
      6.76422     10.22972      7.36440        -0.007662      0.025239      0.009862
      5.10373      8.71560      8.04662         0.007358      0.003782      0.007227
      5.14569      6.31777      7.96663        -0.000374     -0.004435      0.002724
      8.63082      7.63537      4.91768        -0.005124      0.012899      0.010060
      9.13048      8.71448      9.60865         0.005911     -0.006794      0.005873
      9.12245      6.34266      9.48123         0.002453     -0.015455      0.013011
     10.53577      7.63097      7.92315        -0.002445     -0.008128      0.012046
      7.17892      7.53320      8.63440         0.004037     -0.012970     -0.001993
      8.57371      8.80427      7.19051        -0.006651      0.012252      0.014583
      8.61720      6.38125      7.08718         0.003905      0.001233      0.004275
      6.60464      7.57417      6.38195         0.000046     -0.000252      0.005320
      8.91429     10.19362     10.24448         0.018908      0.003934     -0.007601
      7.07014     11.13903      9.67004        -0.073787      0.004208     -0.122861
 -----------------------------------------------------------------------------------
    total drift:                                0.010707     -0.023241     -0.061429


--------------------------------------------------------------------------------------------------------



  FREE ENERGIE OF THE ION-ELECTRON SYSTEM (eV)
  ---------------------------------------------------
  free  energy   TOTEN  =      -136.03747127 eV

  energy  without entropy=     -136.03031023  energy(sigma->0) =     -136.03389075
 
 d Force = 0.3146721E-02[ 0.304E-02, 0.325E-02]  d Energy = 0.3250960E-02-0.104E-03
 d Force =-0.2167623E+01[-0.212E+01,-0.222E+01]  d Ewald  =-0.2167648E+01 0.254E-04


--------------------------------------------------------------------------------------------------------


    POTLOK:  cpu time      0.4325: real time      0.4369


--------------------------------------------------------------------------------------------------------


 stress matrix after NEB project (eV)
     -1.27143      0.02904     -0.05309
      0.02904     -1.34106     -0.43008
     -0.05309     -0.43008     -1.59648
  FORCES: max atom, RMS     0.143378    0.029711
  FORCE total and by dimension    0.168073    0.122861
  Stress total and by dimension    2.518129    1.596482
 Quasi-Newton relaxation of ions (Broydens 2nd method)
  g(Force)  = 0.136E-02   g(Stress)= 0.000E+00

 retain information from N=  4 steps
 eigenvalues of (default step * inverse Hessian matrix)
  average eigenvalue of G=   3.9743
 eigenvalue spectrum of G is  0.3262  5.4824  5.4824  4.6062


--------------------------------------------------------------------------------------------------------


     LOOP+:  cpu time     43.9544: real time     44.1600
    4ORBIT:  cpu time      0.0000: real time      0.0000

 total amount of memory used by VASP MPI-rank0    84390. kBytes
=======================================================================

   base      :      30000. kBytes
   nonl-proj :       2972. kBytes
   fftplans  :      11290. kBytes
   grid      :      28180. kBytes
   one-center:         62. kBytes
   wavefun   :      11886. kBytes
 
  
  
 General timing and accounting informations for this job:
 ========================================================
  
                  Total CPU time used (sec):     2480.574
                            User time (sec):     2479.128
                          System time (sec):        1.447
                         Elapsed time (sec):     2494.094
  
                   Maximum memory used (kb):      375416.
                   Average memory used (kb):          N/A
  
                          Minor page faults:        60562
                          Major page faults:          229
                 Voluntary context switches:        18608
