<?xml version="1.0" encoding="ISO-8859-1"?>
<modeling>
 <generator>
  <i name="program" type="string">vasp </i>
  <i name="version" type="string">6.3.2  </i>
  <i name="subversion" type="string">27Jun22 (build Nov 14 2022 18:12:39) complex                          parallel </i>
  <i name="platform" type="string">Saga </i>
  <i name="date" type="string">2023 01 31 </i>
  <i name="time" type="string">12:48:38 </i>
 </generator>
 <incar>
  <i type="int" name="ISTART">     0</i>
  <i type="string" name="PREC">Accurate</i>
  <i type="int" name="ISPIN">     2</i>
  <i type="int" name="NELM">   120</i>
  <i type="int" name="IBRION">     1</i>
  <i name="EDIFFG">     -0.05000000</i>
  <i type="int" name="NSW">    40</i>
  <i type="int" name="ISYM">    -1</i>
  <i name="ENCUT">    400.00000000</i>
  <i type="int" name="ISMEAR">     0</i>
  <i name="SIGMA">      0.02000000</i>
  <i type="logical" name="LWAVE"> F  </i>
  <i type="logical" name="LCHARG"> F  </i>
  <i type="string" name="GGA">PE</i>
 </incar>
 <primitive_cell>
  <structure name="primitive_cell" >
   <crystal>
    <varray name="basis" >
     <v>      16.00000000       0.00000000       0.00000000 </v>
     <v>       0.00000000      16.00000000       0.00000000 </v>
     <v>       0.00000000       0.00000000      16.00000000 </v>
    </varray>
    <i name="volume">   4096.00000000 </i>
    <varray name="rec_basis" >
     <v>       0.06250000       0.00000000       0.00000000 </v>
     <v>       0.00000000       0.06250000       0.00000000 </v>
     <v>       0.00000000       0.00000000       0.06250000 </v>
    </varray>
   </crystal>
   <varray name="positions" >
    <v>       0.24890775       0.46716103       0.38227500 </v>
    <v>       0.47075300       0.47083604       0.68603282 </v>
    <v>       0.56509929       0.68487094       0.39107810 </v>
    <v>       0.57641077       0.26795648       0.38701744 </v>
    <v>       0.32981921       0.46737207       0.63132709 </v>
    <v>       0.66122127       0.62931291       0.49810176 </v>
    <v>       0.66950797       0.32640005       0.49473166 </v>
    <v>       0.32137815       0.58834201       0.34337587 </v>
    <v>       0.32816009       0.35080972       0.34190375 </v>
    <v>       0.38640052       0.47224946       0.25575210 </v>
    <v>       0.53966186       0.26236736       0.53629913 </v>
    <v>       0.52796249       0.68491348       0.54009518 </v>
    <v>       0.65809047       0.55904861       0.36225457 </v>
    <v>       0.66307143       0.39938929       0.35967929 </v>
    <v>       0.41791132       0.59768505       0.60327309 </v>
    <v>       0.42438662       0.34108315       0.60293950 </v>
    <v>       0.46630145       0.60004593       0.31243553 </v>
    <v>       0.47350070       0.34857420       0.31006576 </v>
    <v>       0.42710009       0.30578490       0.44864940 </v>
    <v>       0.41706815       0.64017942       0.45045461 </v>
    <v>       0.31397359       0.54403793       0.49810494 </v>
    <v>       0.31682913       0.39235051       0.49745393 </v>
    <v>       0.54311139       0.47633634       0.31042064 </v>
    <v>       0.56802291       0.54975469       0.59622085 </v>
    <v>       0.57182650       0.39766337       0.59505195 </v>
    <v>       0.66204844       0.47788122       0.49467593 </v>
    <v>       0.44739091       0.47007865       0.53756543 </v>
    <v>       0.53496030       0.55065105       0.44799599 </v>
    <v>       0.54056338       0.39969673       0.44584246 </v>
    <v>       0.40978433       0.47146384       0.39774057 </v>
    <v>       0.54274968       0.64803888       0.67548893 </v>
    <v>       0.47143722       0.70066411       0.65895224 </v>
   </varray>
  </structure>
  <varray name="primitive_index" >
   <v type="int" >        1 </v>
   <v type="int" >        2 </v>
   <v type="int" >        3 </v>
   <v type="int" >        4 </v>
   <v type="int" >        5 </v>
   <v type="int" >        6 </v>
   <v type="int" >        7 </v>
   <v type="int" >        8 </v>
   <v type="int" >        9 </v>
   <v type="int" >       10 </v>
   <v type="int" >       11 </v>
   <v type="int" >       12 </v>
   <v type="int" >       13 </v>
   <v type="int" >       14 </v>
   <v type="int" >       15 </v>
   <v type="int" >       16 </v>
   <v type="int" >       17 </v>
   <v type="int" >       18 </v>
   <v type="int" >       19 </v>
   <v type="int" >       20 </v>
   <v type="int" >       21 </v>
   <v type="int" >       22 </v>
   <v type="int" >       23 </v>
   <v type="int" >       24 </v>
   <v type="int" >       25 </v>
   <v type="int" >       26 </v>
   <v type="int" >       27 </v>
   <v type="int" >       28 </v>
   <v type="int" >       29 </v>
   <v type="int" >       30 </v>
   <v type="int" >       31 </v>
   <v type="int" >       32 </v>
  </varray>
 </primitive_cell>
 <kpoints>
  <generation param="Monkhorst-Pack">
   <v type="int" name="divisions">       1        1        1 </v>
   <v name="usershift">      0.00000000       0.00000000       0.00000000 </v>
   <v name="genvec1">      1.00000000       0.00000000       0.00000000 </v>
   <v name="genvec2">      0.00000000       1.00000000       0.00000000 </v>
   <v name="genvec3">      0.00000000       0.00000000       1.00000000 </v>
   <v name="shift">      0.00000000       0.00000000       0.00000000 </v>
  </generation>
  <varray name="kpointlist" >
   <v>       0.00000000       0.00000000       0.00000000 </v>
  </varray>
  <varray name="weights" >
   <v>       1.00000000 </v>
  </varray>
 </kpoints>
 <parameters>
  <separator name="general" >
   <i type="string" name="SYSTEM">unknown system</i>
   <i type="logical" name="LCOMPAT"> F  </i>
  </separator>
  <separator name="electronic" >
   <i type="string" name="PREC">accura</i>
   <i name="ENMAX">    400.00000000</i>
   <i name="ENAUG">    544.56500000</i>
   <i name="EDIFF">      0.00010000</i>
   <i type="int" name="IALGO">    38</i>
   <i type="int" name="IWAVPR">    11</i>
   <i type="int" name="NBANDS">   198</i>
   <i type="int" name="NBANDSLOW">    -1</i>
   <i type="int" name="NBANDSHIGH">    -1</i>
   <i name="NELECT">    302.00000000</i>
   <i type="int" name="TURBO">     0</i>
   <i type="int" name="IRESTART">     0</i>
   <i type="int" name="NREBOOT">     0</i>
   <i type="int" name="NMIN">     0</i>
   <i name="EREF">      0.00000000</i>
   <separator name="electronic smearing" >
    <i type="int" name="ISMEAR">     0</i>
    <i name="SIGMA">      0.02000000</i>
    <i name="KSPACING">      0.50000000</i>
    <i type="logical" name="KGAMMA"> T  </i>
    <i type="logical" name="KBLOWUP"> F  </i>
   </separator>
   <separator name="electronic projectors" >
    <i type="logical" name="LREAL"> F  </i>
    <v name="ROPT">      0.00000000      0.00000000</v>
    <i type="int" name="LMAXPAW">  -100</i>
    <i type="int" name="LMAXMIX">     2</i>
    <i type="logical" name="NLSPLINE"> F  </i>
   </separator>
   <separator name="electronic startup" >
    <i type="int" name="ISTART">     0</i>
    <i type="int" name="ICHARG">     2</i>
    <i type="int" name="INIWAV">     1</i>
   </separator>
   <separator name="electronic spin" >
    <i type="int" name="ISPIN">     2</i>
    <i type="logical" name="LNONCOLLINEAR"> F  </i>
    <v name="MAGMOM">      1.00000000      1.00000000      1.00000000      1.00000000      1.00000000      1.00000000      1.00000000      1.00000000      1.00000000      1.00000000      1.00000000      1.00000000      1.00000000      1.00000000      1.00000000      1.00000000      1.00000000      1.00000000      1.00000000      1.00000000
      1.00000000      1.00000000      1.00000000      1.00000000      1.00000000      1.00000000      1.00000000      1.00000000      1.00000000      1.00000000      1.00000000      1.00000000</v>
    <i name="NUPDOWN">     -1.00000000</i>
    <i type="logical" name="LSORBIT"> F  </i>
    <v name="SAXIS">      0.00000000      0.00000000      1.00000000</v>
    <i type="logical" name="LSPIRAL"> F  </i>
    <v name="QSPIRAL">      0.00000000      0.00000000      0.00000000</v>
    <i type="logical" name="LZEROZ"> F  </i>
   </separator>
   <separator name="electronic exchange-correlation" >
    <i type="logical" name="LASPH"> F  </i>
    <i type="logical" name="LMETAGGA"> F  </i>
   </separator>
   <separator name="electronic convergence" >
    <i type="int" name="NELM">   120</i>
    <i type="int" name="NELMDL">    -5</i>
    <i type="int" name="NELMIN">     2</i>
    <i name="ENINI">    400.00000000</i>
    <separator name="electronic convergence detail" >
     <i type="logical" name="LDIAG"> T  </i>
     <i type="logical" name="LSUBROT"> F  </i>
     <i name="WEIMIN">      0.00100000</i>
     <i name="EBREAK">      0.00000013</i>
     <i name="DEPER">      0.30000000</i>
     <i type="int" name="NRMM">     4</i>
     <i name="TIME">      0.40000000</i>
    </separator>
   </separator>
   <separator name="electronic mixer" >
    <i name="AMIX">      0.40000000</i>
    <i name="BMIX">      1.00000000</i>
    <i name="AMIN">      0.10000000</i>
    <i name="AMIX_MAG">      1.60000000</i>
    <i name="BMIX_MAG">      1.00000000</i>
    <separator name="electronic mixer details" >
     <i type="int" name="IMIX">     4</i>
     <i type="logical" name="MIXFIRST"> F  </i>
     <i type="int" name="MAXMIX">   -45</i>
     <i name="WC">    100.00000000</i>
     <i type="int" name="INIMIX">     1</i>
     <i type="int" name="MIXPRE">     1</i>
     <i type="int" name="MREMOVE">     5</i>
    </separator>
   </separator>
   <separator name="electronic dipolcorrection" >
    <i type="logical" name="LDIPOL"> F  </i>
    <i type="logical" name="LMONO"> F  </i>
    <i type="int" name="IDIPOL">     0</i>
    <i name="EPSILON">      1.00000000</i>
    <v name="DIPOL">   -100.00000000   -100.00000000   -100.00000000</v>
    <i name="EFIELD">      0.00000000</i>
   </separator>
  </separator>
  <separator name="grids" >
   <i type="int" name="NGX">   108</i>
   <i type="int" name="NGY">   108</i>
   <i type="int" name="NGZ">   108</i>
   <i type="int" name="NGXF">   216</i>
   <i type="int" name="NGYF">   216</i>
   <i type="int" name="NGZF">   216</i>
   <i type="logical" name="ADDGRID"> F  </i>
  </separator>
  <separator name="ionic" >
   <i type="int" name="NSW">    40</i>
   <i type="int" name="IBRION">     1</i>
   <i type="int" name="MDALGO">     0</i>
   <i type="int" name="ISIF">     2</i>
   <i name="PSTRESS">      0.00000000</i>
   <i name="EDIFFG">     -0.05000000</i>
   <i type="int" name="NFREE">     0</i>
   <i name="POTIM">      0.50000000</i>
   <i name="SMASS">     -3.00000000</i>
   <i name="SCALEE">      1.00000000</i>
  </separator>
  <separator name="ionic md" >
   <i name="TEBEG">      0.00010000</i>
   <i name="TEEND">      0.00010000</i>
   <i type="int" name="NBLOCK">     1</i>
   <i type="int" name="KBLOCK">    40</i>
   <i type="int" name="NPACO">   256</i>
   <i name="APACO">     10.00000000</i>
  </separator>
  <separator name="symmetry" >
   <i type="int" name="ISYM">    -1</i>
   <i name="SYMPREC">      0.00001000</i>
  </separator>
  <separator name="dos" >
   <i type="int" name="LORBIT">     0</i>
   <v name="RWIGS">     -1.00000000     -1.00000000</v>
   <i type="int" name="NEDOS">   301</i>
   <i name="EMIN">     10.00000000</i>
   <i name="EMAX">    -10.00000000</i>
   <i name="EFERMI">      0.00000000</i>
  </separator>
  <separator name="writing" >
   <i type="int" name="NWRITE">     2</i>
   <i type="logical" name="LWAVE"> F  </i>
   <i type="logical" name="LDOWNSAMPLE"> F  </i>
   <i type="logical" name="LCHARG"> F  </i>
   <i type="logical" name="LPARD"> F  </i>
   <i type="logical" name="LVTOT"> F  </i>
   <i type="logical" name="LVHAR"> F  </i>
   <i type="logical" name="LELF"> F  </i>
   <i type="logical" name="LOPTICS"> F  </i>
   <v name="STM">      0.00000000      0.00000000      0.00000000      0.00000000      0.00000000      0.00000000      0.00000000</v>
  </separator>
  <separator name="performance" >
   <i type="int" name="NPAR">     2</i>
   <i type="int" name="NSIM">     4</i>
   <i type="int" name="NBLK">    -1</i>
   <i type="logical" name="LPLANE"> T  </i>
   <i type="logical" name="LSCALAPACK"> T  </i>
   <i type="logical" name="LSCAAWARE"> F  </i>
   <i type="logical" name="LSCALU"> F  </i>
   <i type="logical" name="LASYNC"> F  </i>
   <i type="logical" name="LORBITALREAL"> F  </i>
  </separator>
  <separator name="miscellaneous" >
   <i type="int" name="IDIOT">     3</i>
   <i type="int" name="PHON_NSTRUCT">    -1</i>
   <i type="logical" name="LMUSIC"> F  </i>
   <v name="POMASS">     58.69000000      1.00000000</v>
   <v name="DARWINR">      0.00000000      0.00000000</v>
   <v name="DARWINV">      1.00000000      1.00000000</v>
   <i type="logical" name="LCORR"> T  </i>
  </separator>
  <i type="logical" name="GGA_COMPAT"> T  </i>
  <i type="logical" name="LBERRY"> F  </i>
  <i type="int" name="ICORELEVEL">     0</i>
  <i type="logical" name="LDAU"> F  </i>
  <i type="int" name="I_CONSTRAINED_M">     0</i>
  <separator name="electronic exchange-correlation" >
   <i type="string" name="GGA">PE</i>
   <i type="int" name="VOSKOWN">     0</i>
   <i type="logical" name="LHFCALC"> F  </i>
   <i type="string" name="PRECFOCK"></i>
   <i type="logical" name="LSYMGRAD"> F  </i>
   <i type="logical" name="LHFONE"> F  </i>
   <i type="logical" name="LRHFCALC"> F  </i>
   <i type="logical" name="LTHOMAS"> F  </i>
   <i type="logical" name="LMODELHF"> F  </i>
   <i type="logical" name="LFOCKACE"> F  </i>
   <i name="ENCUT4O">     -1.00000000</i>
   <i type="int" name="EXXOEP">     0</i>
   <i type="int" name="FOURORBIT">     0</i>
   <i name="AEXX">      0.00000000</i>
   <i name="HFALPHA">      0.00000000</i>
   <i name="MCALPHA">      0.00000000</i>
   <i name="ALDAX">      1.00000000</i>
   <i name="AGGAX">      1.00000000</i>
   <i name="ALDAC">      1.00000000</i>
   <i name="AGGAC">      1.00000000</i>
   <i type="int" name="NKREDX">     1</i>
   <i type="int" name="NKREDY">     1</i>
   <i type="int" name="NKREDZ">     1</i>
   <i type="logical" name="SHIFTRED"> F  </i>
   <i type="logical" name="ODDONLY"> F  </i>
   <i type="logical" name="EVENONLY"> F  </i>
   <i type="int" name="LMAXFOCK">     0</i>
   <i type="int" name="NMAXFOCKAE">     0</i>
   <i type="logical" name="LFOCKAEDFT"> F  </i>
   <i name="HFSCREEN">      0.00000000</i>
   <i name="HFSCREENC">      0.00000000</i>
   <i type="int" name="NBANDSGWLOW">     0</i>
  </separator>
  <separator name="vdW DFT" >
   <i type="logical" name="LUSE_VDW"> F  </i>
   <i name="Zab_VDW">     -0.84910000</i>
   <i name="PARAM1">      0.12340000</i>
   <i name="PARAM2">      1.00000000</i>
   <i name="PARAM3">      0.00000000</i>
  </separator>
  <separator name="model GW" >
   <i type="int" name="MODEL_GW">     0</i>
   <i name="MODEL_EPS0">     76.80000000</i>
   <i name="MODEL_ALPHA">      1.00000000</i>
  </separator>
  <separator name="linear response parameters" >
   <i type="logical" name="LEPSILON"> F  </i>
   <i type="logical" name="LRPA"> F  </i>
   <i type="logical" name="LNABLA"> F  </i>
   <i type="logical" name="LVEL"> F  </i>
   <i name="CSHIFT">      0.10000000</i>
   <i name="OMEGAMAX">     -1.00000000</i>
   <i name="DEG_THRESHOLD">      0.00200000</i>
   <i name="RTIME">     -0.10000000</i>
   <i name="WPLASMAI">      0.00000000</i>
   <v name="DFIELD">      0.00000000      0.00000000      0.00000000</v>
   <v name="WPLASMA">      0.00000000      0.00000000      0.00000000      0.00000000      0.00000000      0.00000000      0.00000000      0.00000000      0.00000000</v>
  </separator>
  <separator name="orbital magnetization" >
   <i type="logical" name="NUCIND"> F  </i>
   <v name="MAGPOS">      0.00000000      0.00000000      0.00000000</v>
   <i type="logical" name="LNICSALL"> T  </i>
   <i type="logical" name="ORBITALMAG"> F  </i>
   <i type="logical" name="LMAGBLOCH"> F  </i>
   <i type="logical" name="LCHIMAG"> F  </i>
   <i type="logical" name="LGAUGE"> T  </i>
   <i type="int" name="MAGATOM">     0</i>
   <v name="MAGDIPOL">      0.00000000      0.00000000      0.00000000</v>
   <v name="AVECCONST">      0.00000000      0.00000000      0.00000000</v>
  </separator>
  <separator name="response functions" >
   <i type="logical" name="LFINITE_TEMPERATURE"> F  </i>
   <i type="logical" name="LADDER"> F  </i>
   <i type="logical" name="LRPAFORCE"> F  </i>
   <i type="logical" name="LFXC"> F  </i>
   <i type="logical" name="LHARTREE"> T  </i>
   <i type="int" name="IBSE">     0</i>
   <v type="int" name="KPOINT">    -1     0     0     0</v>
   <i type="logical" name="LTCTC"> F  </i>
   <i type="logical" name="LTCTE"> F  </i>
   <i type="logical" name="LTETE"> F  </i>
   <i type="logical" name="LTRIPLET"> F  </i>
   <i type="logical" name="LFXCEPS"> F  </i>
   <i type="logical" name="LFXHEG"> F  </i>
   <i type="int" name="NATURALO">     2</i>
   <i type="logical" name="LHOLEGF"> F  </i>
   <i type="logical" name="L2ORDER"> F  </i>
   <i type="logical" name="LDMP1"> F  </i>
   <i type="logical" name="LMP2LT"> F  </i>
   <i type="logical" name="LSMP2LT"> F  </i>
   <i type="logical" name="LGWLF"> F  </i>
   <i name="ENCUTGW">     -2.00000000</i>
   <i name="ENCUTGWSOFT">     -2.00000000</i>
   <i name="ENCUTLF">     -1.00000000</i>
   <i type="logical" name="LESF_SPLINES"> F  </i>
   <i type="int" name="LMAXMP2">    -1</i>
   <i name="SCISSOR">      0.00000000</i>
   <i type="int" name="NOMEGA">     0</i>
   <i type="int" name="NOMEGAR">     0</i>
   <i type="int" name="NBANDSGW">    -1</i>
   <i type="int" name="NBANDSO">    -1</i>
   <i type="int" name="NBANDSV">    -1</i>
   <i type="int" name="NELMGW">     1</i>
   <i type="int" name="NELMHF">     1</i>
   <i type="int" name="DIM">     3</i>
   <i type="int" name="IESPILON">     4</i>
   <i type="int" name="ANTIRES">     0</i>
   <i name="OMEGAMAX">    -30.00000000</i>
   <i name="OMEGAMIN">    -30.00000000</i>
   <i name="OMEGATL">   -200.00000000</i>
   <i type="int" name="OMEGAGRID">     0</i>
   <i name="CSHIFT">     -0.10000000</i>
   <i type="logical" name="LSELFENERGY"> F  </i>
   <i type="logical" name="LSPECTRAL"> F  </i>
   <i type="logical" name="LSPECTRALGW"> F  </i>
   <i type="logical" name="LSINGLES"> F  </i>
   <i type="logical" name="LFERMIGW"> F  </i>
   <i type="logical" name="ODDONLYGW"> F  </i>
   <i type="logical" name="EVENONLYGW"> F  </i>
   <i type="int" name="NKREDLFX">     1</i>
   <i type="int" name="NKREDLFY">     1</i>
   <i type="int" name="NKREDLFZ">     1</i>
   <i type="int" name="MAXMEM">  2800</i>
   <i type="int" name="TELESCOPE">     0</i>
   <i type="int" name="NTAUPAR">    -1</i>
   <i type="int" name="NOMEGAPAR">    -1</i>
   <i name="DAMP_NEWTON">      0.80000001</i>
   <i name="LAMBDA">      1.00000000</i>
  </separator>
  <separator name="External order field" >
   <i name="OFIELD_KAPPA">      0.00000000</i>
   <v name="OFIELD_K">      0.00000000      0.00000000      0.00000000</v>
   <i name="OFIELD_Q6_NEAR">      0.00000000</i>
   <i name="OFIELD_Q6_FAR">      0.00000000</i>
   <i name="OFIELD_A">      0.00000000</i>
  </separator>
  <separator name="optional k-points parameters" >
   <i type="int" name="KPOINTS_OPT_MODE">     1</i>
   <i type="logical" name="LKPOINTS_OPT"> F  </i>
  </separator>
 </parameters>
 <atominfo>
  <atoms>      32 </atoms>
  <types>       2 </types>
  <array name="atoms" >
   <dimension dim="1">ion</dimension>
   <field type="string">element</field>
   <field type="int">atomtype</field>
   <set>
    <rc><c>Ni</c><c>   1</c></rc>
    <rc><c>Ni</c><c>   1</c></rc>
    <rc><c>Ni</c><c>   1</c></rc>
    <rc><c>Ni</c><c>   1</c></rc>
    <rc><c>Ni</c><c>   1</c></rc>
    <rc><c>Ni</c><c>   1</c></rc>
    <rc><c>Ni</c><c>   1</c></rc>
    <rc><c>Ni</c><c>   1</c></rc>
    <rc><c>Ni</c><c>   1</c></rc>
    <rc><c>Ni</c><c>   1</c></rc>
    <rc><c>Ni</c><c>   1</c></rc>
    <rc><c>Ni</c><c>   1</c></rc>
    <rc><c>Ni</c><c>   1</c></rc>
    <rc><c>Ni</c><c>   1</c></rc>
    <rc><c>Ni</c><c>   1</c></rc>
    <rc><c>Ni</c><c>   1</c></rc>
    <rc><c>Ni</c><c>   1</c></rc>
    <rc><c>Ni</c><c>   1</c></rc>
    <rc><c>Ni</c><c>   1</c></rc>
    <rc><c>Ni</c><c>   1</c></rc>
    <rc><c>Ni</c><c>   1</c></rc>
    <rc><c>Ni</c><c>   1</c></rc>
    <rc><c>Ni</c><c>   1</c></rc>
    <rc><c>Ni</c><c>   1</c></rc>
    <rc><c>Ni</c><c>   1</c></rc>
    <rc><c>Ni</c><c>   1</c></rc>
    <rc><c>Ni</c><c>   1</c></rc>
    <rc><c>Ni</c><c>   1</c></rc>
    <rc><c>Ni</c><c>   1</c></rc>
    <rc><c>Ni</c><c>   1</c></rc>
    <rc><c>H </c><c>   2</c></rc>
    <rc><c>H </c><c>   2</c></rc>
   </set>
  </array>
  <array name="atomtypes" >
   <dimension dim="1">type</dimension>
   <field type="int">atomspertype</field>
   <field type="string">element</field>
   <field>mass</field>
   <field>valence</field>
   <field type="string">pseudopotential</field>
   <set>
    <rc><c>  30</c><c>Ni</c><c>     58.69000000</c><c>     10.00000000</c><c>  PAW_PBE Ni 02Aug2007                  </c></rc>
    <rc><c>   2</c><c>H </c><c>      1.00000000</c><c>      1.00000000</c><c>  PAW_PBE H 15Jun2001                   </c></rc>
   </set>
  </array>
 </atominfo>
 <structure name="initialpos" >
  <crystal>
   <varray name="basis" >
    <v>      16.00000000       0.00000000       0.00000000 </v>
    <v>       0.00000000      16.00000000       0.00000000 </v>
    <v>       0.00000000       0.00000000      16.00000000 </v>
   </varray>
   <i name="volume">   4096.00000000 </i>
   <varray name="rec_basis" >
    <v>       0.06250000       0.00000000       0.00000000 </v>
    <v>       0.00000000       0.06250000       0.00000000 </v>
    <v>       0.00000000       0.00000000       0.06250000 </v>
   </varray>
  </crystal>
  <varray name="positions" >
   <v>       0.24890775       0.46716103       0.38227500 </v>
   <v>       0.47075300       0.47083604       0.68603282 </v>
   <v>       0.56509929       0.68487094       0.39107810 </v>
   <v>       0.57641077       0.26795648       0.38701744 </v>
   <v>       0.32981921       0.46737207       0.63132709 </v>
   <v>       0.66122127       0.62931291       0.49810176 </v>
   <v>       0.66950797       0.32640005       0.49473166 </v>
   <v>       0.32137815       0.58834201       0.34337587 </v>
   <v>       0.32816009       0.35080972       0.34190375 </v>
   <v>       0.38640052       0.47224946       0.25575210 </v>
   <v>       0.53966186       0.26236736       0.53629913 </v>
   <v>       0.52796249       0.68491348       0.54009518 </v>
   <v>       0.65809047       0.55904861       0.36225457 </v>
   <v>       0.66307143       0.39938929       0.35967929 </v>
   <v>       0.41791132       0.59768505       0.60327309 </v>
   <v>       0.42438662       0.34108315       0.60293950 </v>
   <v>       0.46630145       0.60004593       0.31243553 </v>
   <v>       0.47350070       0.34857420       0.31006576 </v>
   <v>       0.42710009       0.30578490       0.44864940 </v>
   <v>       0.41706815       0.64017942       0.45045461 </v>
   <v>       0.31397359       0.54403793       0.49810494 </v>
   <v>       0.31682913       0.39235051       0.49745393 </v>
   <v>       0.54311139       0.47633634       0.31042064 </v>
   <v>       0.56802291       0.54975469       0.59622085 </v>
   <v>       0.57182650       0.39766337       0.59505195 </v>
   <v>       0.66204844       0.47788122       0.49467593 </v>
   <v>       0.44739091       0.47007865       0.53756543 </v>
   <v>       0.53496030       0.55065105       0.44799599 </v>
   <v>       0.54056338       0.39969673       0.44584246 </v>
   <v>       0.40978433       0.47146384       0.39774057 </v>
   <v>       0.54274968       0.64803888       0.67548893 </v>
   <v>       0.47143722       0.70066411       0.65895224 </v>
  </varray>
 </structure>
 <calculation>
  <scstep>
   <time name="dav">    3.65    3.67</time>
   <time name="total">    4.12    4.16</time>
   <energy>
    <i name="alphaZ">    113.16553179 </i>
    <i name="ewald">  53665.63893769 </i>
    <i name="hartreedc"> -83559.11731361 </i>
    <i name="XCdc">    933.21383959 </i>
    <i name="pawpsdc">  28888.58386782 </i>
    <i name="pawaedc"> -30893.72677109 </i>
    <i name="eentropy">     -0.01187288 </i>
    <i name="bandstr">    -11.76920971 </i>
    <i name="atom">  32354.87237921 </i>
    <i name="e_fr_energy">   1490.84938882 </i>
    <i name="e_wo_entrp">   1490.86126170 </i>
    <i name="e_0_energy">   1490.85532526 </i>
   </energy>
  </scstep>
  <scstep>
   <time name="dav">    3.77    3.78</time>
   <time name="total">    3.77    3.78</time>
   <energy>
    <i name="e_fr_energy">    -67.11141768 </i>
    <i name="e_wo_entrp">    -67.09541953 </i>
    <i name="e_0_energy">    -67.10341860 </i>
   </energy>
  </scstep>
  <scstep>
   <time name="dav">    3.91    3.92</time>
   <time name="total">    3.91    3.92</time>
   <energy>
    <i name="e_fr_energy">   -150.22488897 </i>
    <i name="e_wo_entrp">   -150.20811543 </i>
    <i name="e_0_energy">   -150.21650220 </i>
   </energy>
  </scstep>
  <scstep>
   <time name="dav">    3.88    3.91</time>
   <time name="total">    3.89    3.91</time>
   <energy>
    <i name="e_fr_energy">   -152.30616337 </i>
    <i name="e_wo_entrp">   -152.28465426 </i>
    <i name="e_0_energy">   -152.29540881 </i>
   </energy>
  </scstep>
  <scstep>
   <time name="dav">    4.01    4.02</time>
   <time name="total">    4.20    4.22</time>
   <energy>
    <i name="e_fr_energy">   -152.35383791 </i>
    <i name="e_wo_entrp">   -152.33228273 </i>
    <i name="e_0_energy">   -152.34306032 </i>
   </energy>
  </scstep>
  <scstep>
   <time name="dav">    3.80    3.81</time>
   <time name="total">    4.43    4.46</time>
   <energy>
    <i name="e_fr_energy">   -168.48420868 </i>
    <i name="e_wo_entrp">   -168.47104057 </i>
    <i name="e_0_energy">   -168.47762463 </i>
   </energy>
  </scstep>
  <scstep>
   <time name="dav">    3.88    3.89</time>
   <time name="total">    4.51    4.53</time>
   <energy>
    <i name="e_fr_energy">   -151.53577281 </i>
    <i name="e_wo_entrp">   -151.52255635 </i>
    <i name="e_0_energy">   -151.52916458 </i>
   </energy>
  </scstep>
  <scstep>
   <time name="dav">    3.87    3.88</time>
   <time name="total">    4.48    4.50</time>
   <energy>
    <i name="e_fr_energy">   -146.12508904 </i>
    <i name="e_wo_entrp">   -146.10994414 </i>
    <i name="e_0_energy">   -146.11751659 </i>
   </energy>
  </scstep>
  <scstep>
   <time name="dav">    3.85    3.86</time>
   <time name="total">    4.47    4.49</time>
   <energy>
    <i name="e_fr_energy">   -140.47032755 </i>
    <i name="e_wo_entrp">   -140.45319925 </i>
    <i name="e_0_energy">   -140.46176340 </i>
   </energy>
  </scstep>
  <scstep>
   <time name="dav">    4.10    4.11</time>
   <time name="total">    4.71    4.74</time>
   <energy>
    <i name="e_fr_energy">   -139.46983927 </i>
    <i name="e_wo_entrp">   -139.45130419 </i>
    <i name="e_0_energy">   -139.46057173 </i>
   </energy>
  </scstep>
  <scstep>
   <time name="dav">    4.17    4.18</time>
   <time name="total">    4.79    4.80</time>
   <energy>
    <i name="e_fr_energy">   -145.96913464 </i>
    <i name="e_wo_entrp">   -145.95600773 </i>
    <i name="e_0_energy">   -145.96257119 </i>
   </energy>
  </scstep>
  <scstep>
   <time name="dav">    4.12    4.13</time>
   <time name="total">    4.77    4.78</time>
   <energy>
    <i name="e_fr_energy">   -134.65227067 </i>
    <i name="e_wo_entrp">   -134.64573290 </i>
    <i name="e_0_energy">   -134.64900178 </i>
   </energy>
  </scstep>
  <scstep>
   <time name="dav">    3.80    3.81</time>
   <time name="total">    4.42    4.44</time>
   <energy>
    <i name="e_fr_energy">   -130.57483998 </i>
    <i name="e_wo_entrp">   -130.56562976 </i>
    <i name="e_0_energy">   -130.57023487 </i>
   </energy>
  </scstep>
  <scstep>
   <time name="dav">    3.92    3.93</time>
   <time name="total">    4.54    4.55</time>
   <energy>
    <i name="e_fr_energy">   -129.00290481 </i>
    <i name="e_wo_entrp">   -128.98516789 </i>
    <i name="e_0_energy">   -128.99403635 </i>
   </energy>
  </scstep>
  <scstep>
   <time name="dav">    3.84    3.85</time>
   <time name="total">    4.45    4.47</time>
   <energy>
    <i name="e_fr_energy">   -127.66800609 </i>
    <i name="e_wo_entrp">   -127.64804418 </i>
    <i name="e_0_energy">   -127.65802513 </i>
   </energy>
  </scstep>
  <scstep>
   <time name="dav">    3.79    3.80</time>
   <time name="total">    4.40    4.42</time>
   <energy>
    <i name="e_fr_energy">   -128.41578759 </i>
    <i name="e_wo_entrp">   -128.39858830 </i>
    <i name="e_0_energy">   -128.40718794 </i>
   </energy>
  </scstep>
  <scstep>
   <time name="dav">    4.02    4.03</time>
   <time name="total">    4.63    4.66</time>
   <energy>
    <i name="e_fr_energy">   -128.61459662 </i>
    <i name="e_wo_entrp">   -128.60187838 </i>
    <i name="e_0_energy">   -128.60823750 </i>
   </energy>
  </scstep>
  <scstep>
   <time name="dav">    3.82    3.83</time>
   <time name="total">    4.43    4.46</time>
   <energy>
    <i name="e_fr_energy">   -127.88021298 </i>
    <i name="e_wo_entrp">   -127.86604831 </i>
    <i name="e_0_energy">   -127.87313064 </i>
   </energy>
  </scstep>
  <scstep>
   <time name="dav">    3.95    3.96</time>
   <time name="total">    4.56    4.58</time>
   <energy>
    <i name="e_fr_energy">   -127.70411336 </i>
    <i name="e_wo_entrp">   -127.68829039 </i>
    <i name="e_0_energy">   -127.69620187 </i>
   </energy>
  </scstep>
  <scstep>
   <time name="dav">    4.08    4.09</time>
   <time name="total">    4.70    4.71</time>
   <energy>
    <i name="e_fr_energy">   -128.29238544 </i>
    <i name="e_wo_entrp">   -128.27821301 </i>
    <i name="e_0_energy">   -128.28529923 </i>
   </energy>
  </scstep>
  <scstep>
   <time name="dav">    3.78    3.79</time>
   <time name="total">    4.40    4.42</time>
   <energy>
    <i name="e_fr_energy">   -128.28177992 </i>
    <i name="e_wo_entrp">   -128.26670194 </i>
    <i name="e_0_energy">   -128.27424093 </i>
   </energy>
  </scstep>
  <scstep>
   <time name="dav">    3.81    3.82</time>
   <time name="total">    4.43    4.45</time>
   <energy>
    <i name="e_fr_energy">   -128.54950144 </i>
    <i name="e_wo_entrp">   -128.53989606 </i>
    <i name="e_0_energy">   -128.54469875 </i>
   </energy>
  </scstep>
  <scstep>
   <time name="dav">    3.77    3.78</time>
   <time name="total">    4.38    4.40</time>
   <energy>
    <i name="e_fr_energy">   -128.93684861 </i>
    <i name="e_wo_entrp">   -128.92174797 </i>
    <i name="e_0_energy">   -128.92929829 </i>
   </energy>
  </scstep>
  <scstep>
   <time name="dav">    3.83    3.84</time>
   <time name="total">    4.45    4.46</time>
   <energy>
    <i name="e_fr_energy">   -129.34457939 </i>
    <i name="e_wo_entrp">   -129.32920368 </i>
    <i name="e_0_energy">   -129.33689153 </i>
   </energy>
  </scstep>
  <scstep>
   <time name="dav">    4.08    4.09</time>
   <time name="total">    4.70    4.72</time>
   <energy>
    <i name="e_fr_energy">   -130.04985578 </i>
    <i name="e_wo_entrp">   -130.03746041 </i>
    <i name="e_0_energy">   -130.04365810 </i>
   </energy>
  </scstep>
  <scstep>
   <time name="dav">    3.90    3.91</time>
   <time name="total">    4.52    4.54</time>
   <energy>
    <i name="e_fr_energy">   -130.21794979 </i>
    <i name="e_wo_entrp">   -130.20046238 </i>
    <i name="e_0_energy">   -130.20920608 </i>
   </energy>
  </scstep>
  <scstep>
   <time name="dav">    3.78    3.79</time>
   <time name="total">    4.40    4.43</time>
   <energy>
    <i name="e_fr_energy">   -130.51655059 </i>
    <i name="e_wo_entrp">   -130.50084696 </i>
    <i name="e_0_energy">   -130.50869878 </i>
   </energy>
  </scstep>
  <scstep>
   <time name="dav">    3.65    3.66</time>
   <time name="total">    4.27    4.30</time>
   <energy>
    <i name="e_fr_energy">   -130.80354477 </i>
    <i name="e_wo_entrp">   -130.78907018 </i>
    <i name="e_0_energy">   -130.79630748 </i>
   </energy>
  </scstep>
  <scstep>
   <time name="dav">    3.86    3.87</time>
   <time name="total">    4.48    4.50</time>
   <energy>
    <i name="e_fr_energy">   -130.95721646 </i>
    <i name="e_wo_entrp">   -130.94238204 </i>
    <i name="e_0_energy">   -130.94979925 </i>
   </energy>
  </scstep>
  <scstep>
   <time name="dav">    3.86    3.87</time>
   <time name="total">    4.48    4.50</time>
   <energy>
    <i name="e_fr_energy">   -131.41673581 </i>
    <i name="e_wo_entrp">   -131.40402268 </i>
    <i name="e_0_energy">   -131.41037925 </i>
   </energy>
  </scstep>
  <scstep>
   <time name="dav">    3.76    3.76</time>
   <time name="total">    4.38    4.39</time>
   <energy>
    <i name="e_fr_energy">   -131.63172173 </i>
    <i name="e_wo_entrp">   -131.61937714 </i>
    <i name="e_0_energy">   -131.62554943 </i>
   </energy>
  </scstep>
  <scstep>
   <time name="dav">    3.84    3.85</time>
   <time name="total">    4.48    4.51</time>
   <energy>
    <i name="e_fr_energy">   -131.90999012 </i>
    <i name="e_wo_entrp">   -131.89856132 </i>
    <i name="e_0_energy">   -131.90427572 </i>
   </energy>
  </scstep>
  <scstep>
   <time name="dav">    3.73    3.74</time>
   <time name="total">    4.35    4.37</time>
   <energy>
    <i name="e_fr_energy">   -132.30219820 </i>
    <i name="e_wo_entrp">   -132.29087175 </i>
    <i name="e_0_energy">   -132.29653498 </i>
   </energy>
  </scstep>
  <scstep>
   <time name="dav">    3.95    3.96</time>
   <time name="total">    4.58    4.59</time>
   <energy>
    <i name="e_fr_energy">   -132.43780140 </i>
    <i name="e_wo_entrp">   -132.42486960 </i>
    <i name="e_0_energy">   -132.43133550 </i>
   </energy>
  </scstep>
  <scstep>
   <time name="dav">    3.74    3.75</time>
   <time name="total">    4.36    4.38</time>
   <energy>
    <i name="e_fr_energy">   -132.67004349 </i>
    <i name="e_wo_entrp">   -132.65922511 </i>
    <i name="e_0_energy">   -132.66463430 </i>
   </energy>
  </scstep>
  <scstep>
   <time name="dav">    3.79    3.80</time>
   <time name="total">    4.42    4.44</time>
   <energy>
    <i name="e_fr_energy">   -132.77926053 </i>
    <i name="e_wo_entrp">   -132.76734294 </i>
    <i name="e_0_energy">   -132.77330174 </i>
   </energy>
  </scstep>
  <scstep>
   <time name="dav">    3.82    3.83</time>
   <time name="total">    4.45    4.46</time>
   <energy>
    <i name="e_fr_energy">   -132.90436005 </i>
    <i name="e_wo_entrp">   -132.89288386 </i>
    <i name="e_0_energy">   -132.89862195 </i>
   </energy>
  </scstep>
  <scstep>
   <time name="dav">    3.67    3.68</time>
   <time name="total">    4.30    4.32</time>
   <energy>
    <i name="e_fr_energy">   -133.05485477 </i>
    <i name="e_wo_entrp">   -133.04309888 </i>
    <i name="e_0_energy">   -133.04897683 </i>
   </energy>
  </scstep>
  <scstep>
   <time name="dav">    4.01    4.02</time>
   <time name="total">    4.64    4.66</time>
   <energy>
    <i name="e_fr_energy">   -133.15079530 </i>
    <i name="e_wo_entrp">   -133.13899523 </i>
    <i name="e_0_energy">   -133.14489527 </i>
   </energy>
  </scstep>
  <scstep>
   <time name="dav">    3.75    3.76</time>
   <time name="total">    4.38    4.40</time>
   <energy>
    <i name="e_fr_energy">   -133.29249213 </i>
    <i name="e_wo_entrp">   -133.28003756 </i>
    <i name="e_0_energy">   -133.28626485 </i>
   </energy>
  </scstep>
  <scstep>
   <time name="dav">    4.00    4.01</time>
   <time name="total">    4.63    4.65</time>
   <energy>
    <i name="e_fr_energy">   -133.34558736 </i>
    <i name="e_wo_entrp">   -133.33351334 </i>
    <i name="e_0_energy">   -133.33955035 </i>
   </energy>
  </scstep>
  <scstep>
   <time name="dav">    4.16    4.17</time>
   <time name="total">    4.79    4.81</time>
   <energy>
    <i name="e_fr_energy">   -133.47120915 </i>
    <i name="e_wo_entrp">   -133.45914662 </i>
    <i name="e_0_energy">   -133.46517789 </i>
   </energy>
  </scstep>
  <scstep>
   <time name="dav">    3.95    3.96</time>
   <time name="total">    4.58    4.60</time>
   <energy>
    <i name="e_fr_energy">   -133.49623363 </i>
    <i name="e_wo_entrp">   -133.48411610 </i>
    <i name="e_0_energy">   -133.49017486 </i>
   </energy>
  </scstep>
  <scstep>
   <time name="dav">    4.12    4.13</time>
   <time name="total">    4.76    4.78</time>
   <energy>
    <i name="e_fr_energy">   -133.52663656 </i>
    <i name="e_wo_entrp">   -133.51457061 </i>
    <i name="e_0_energy">   -133.52060358 </i>
   </energy>
  </scstep>
  <scstep>
   <time name="dav">    4.05    4.06</time>
   <time name="total">    4.69    4.71</time>
   <energy>
    <i name="e_fr_energy">   -133.54063092 </i>
    <i name="e_wo_entrp">   -133.52849565 </i>
    <i name="e_0_energy">   -133.53456329 </i>
   </energy>
  </scstep>
  <scstep>
   <time name="dav">    4.32    4.33</time>
   <time name="total">    4.96    4.98</time>
   <energy>
    <i name="e_fr_energy">   -133.56163807 </i>
    <i name="e_wo_entrp">   -133.54937414 </i>
    <i name="e_0_energy">   -133.55550610 </i>
   </energy>
  </scstep>
  <scstep>
   <time name="dav">    4.03    4.03</time>
   <time name="total">    4.67    4.69</time>
   <energy>
    <i name="e_fr_energy">   -133.56968935 </i>
    <i name="e_wo_entrp">   -133.55737321 </i>
    <i name="e_0_energy">   -133.56353128 </i>
   </energy>
  </scstep>
  <scstep>
   <time name="dav">    3.75    3.76</time>
   <time name="total">    4.40    4.41</time>
   <energy>
    <i name="e_fr_energy">   -133.57834543 </i>
    <i name="e_wo_entrp">   -133.56597135 </i>
    <i name="e_0_energy">   -133.57215839 </i>
   </energy>
  </scstep>
  <scstep>
   <time name="dav">    3.40    3.41</time>
   <time name="total">    4.05    4.06</time>
   <energy>
    <i name="e_fr_energy">   -133.58193503 </i>
    <i name="e_wo_entrp">   -133.56961970 </i>
    <i name="e_0_energy">   -133.57577737 </i>
   </energy>
  </scstep>
  <scstep>
   <time name="dav">    3.34    3.34</time>
   <time name="total">    3.98    4.00</time>
   <energy>
    <i name="e_fr_energy">   -133.58587741 </i>
    <i name="e_wo_entrp">   -133.57351503 </i>
    <i name="e_0_energy">   -133.57969622 </i>
   </energy>
  </scstep>
  <scstep>
   <time name="dav">    3.03    3.04</time>
   <time name="total">    3.67    3.69</time>
   <energy>
    <i name="e_fr_energy">   -133.58833008 </i>
    <i name="e_wo_entrp">   -133.57599825 </i>
    <i name="e_0_energy">   -133.58216416 </i>
   </energy>
  </scstep>
  <scstep>
   <time name="dav">    2.89    2.90</time>
   <time name="total">    3.54    3.55</time>
   <energy>
    <i name="e_fr_energy">   -133.58987912 </i>
    <i name="e_wo_entrp">   -133.57750244 </i>
    <i name="e_0_energy">   -133.58369078 </i>
   </energy>
  </scstep>
  <scstep>
   <time name="dav">    3.17    3.18</time>
   <time name="total">    3.82    3.83</time>
   <energy>
    <i name="e_fr_energy">   -133.59116875 </i>
    <i name="e_wo_entrp">   -133.57881580 </i>
    <i name="e_0_energy">   -133.58499228 </i>
   </energy>
  </scstep>
  <scstep>
   <time name="dav">    2.96    2.96</time>
   <time name="total">    3.61    3.62</time>
   <energy>
    <i name="e_fr_energy">   -133.59268624 </i>
    <i name="e_wo_entrp">   -133.58032463 </i>
    <i name="e_0_energy">   -133.58650544 </i>
   </energy>
  </scstep>
  <scstep>
   <time name="dav">    2.85    2.86</time>
   <time name="total">    3.50    3.51</time>
   <energy>
    <i name="e_fr_energy">   -133.59300352 </i>
    <i name="e_wo_entrp">   -133.58063410 </i>
    <i name="e_0_energy">   -133.58681881 </i>
   </energy>
  </scstep>
  <scstep>
   <time name="dav">    2.72    2.73</time>
   <time name="total">    3.36    3.38</time>
   <energy>
    <i name="e_fr_energy">   -133.59351229 </i>
    <i name="e_wo_entrp">   -133.58114479 </i>
    <i name="e_0_energy">   -133.58732854 </i>
   </energy>
  </scstep>
  <scstep>
   <time name="dav">    2.67    2.67</time>
   <time name="total">    3.31    3.32</time>
   <energy>
    <i name="e_fr_energy">   -133.59422035 </i>
    <i name="e_wo_entrp">   -133.58186482 </i>
    <i name="e_0_energy">   -133.58804258 </i>
   </energy>
  </scstep>
  <scstep>
   <time name="dav">    2.70    2.70</time>
   <time name="total">    3.34    3.36</time>
   <energy>
    <i name="e_fr_energy">   -133.59468304 </i>
    <i name="e_wo_entrp">   -133.58233072 </i>
    <i name="e_0_energy">   -133.58850688 </i>
   </energy>
  </scstep>
  <scstep>
   <time name="dav">    2.77    2.78</time>
   <time name="total">    3.42    3.43</time>
   <energy>
    <i name="e_fr_energy">   -133.59493599 </i>
    <i name="e_wo_entrp">   -133.58256756 </i>
    <i name="e_0_energy">   -133.58875177 </i>
   </energy>
  </scstep>
  <scstep>
   <time name="dav">    2.68    2.68</time>
   <time name="total">    3.32    3.33</time>
   <energy>
    <i name="e_fr_energy">   -133.59510710 </i>
    <i name="e_wo_entrp">   -133.58273337 </i>
    <i name="e_0_energy">   -133.58892024 </i>
   </energy>
  </scstep>
  <scstep>
   <time name="dav">    2.70    2.70</time>
   <time name="total">    3.13    3.15</time>
   <energy>
    <i name="alphaZ">    113.16553179 </i>
    <i name="ewald">  53665.63893769 </i>
    <i name="hartreedc"> -83633.96308721 </i>
    <i name="XCdc">    912.41832127 </i>
    <i name="pawpsdc">  32506.25337364 </i>
    <i name="pawaedc"> -34545.75033751 </i>
    <i name="eentropy">     -0.01237845 </i>
    <i name="bandstr">  -1506.21791781 </i>
    <i name="atom">  32354.87237921 </i>
    <i name="e_fr_energy">   -133.59517738 </i>
    <i name="e_wo_entrp">   -133.58279893 </i>
    <i name="e_0_energy">   -133.58898816 </i>
   </energy>
  </scstep>
  <structure>
   <crystal>
    <varray name="basis" >
     <v>      16.00000000       0.00000000       0.00000000 </v>
     <v>       0.00000000      16.00000000       0.00000000 </v>
     <v>       0.00000000       0.00000000      16.00000000 </v>
    </varray>
    <i name="volume">   4096.00000000 </i>
    <varray name="rec_basis" >
     <v>       0.06250000       0.00000000       0.00000000 </v>
     <v>       0.00000000       0.06250000       0.00000000 </v>
     <v>       0.00000000       0.00000000       0.06250000 </v>
    </varray>
   </crystal>
   <varray name="positions" >
    <v>       0.24890775       0.46716103       0.38227500 </v>
    <v>       0.47075300       0.47083604       0.68603282 </v>
    <v>       0.56509929       0.68487094       0.39107810 </v>
    <v>       0.57641077       0.26795648       0.38701744 </v>
    <v>       0.32981921       0.46737207       0.63132709 </v>
    <v>       0.66122127       0.62931291       0.49810176 </v>
    <v>       0.66950797       0.32640005       0.49473166 </v>
    <v>       0.32137815       0.58834201       0.34337587 </v>
    <v>       0.32816009       0.35080972       0.34190375 </v>
    <v>       0.38640052       0.47224946       0.25575210 </v>
    <v>       0.53966186       0.26236736       0.53629913 </v>
    <v>       0.52796249       0.68491348       0.54009518 </v>
    <v>       0.65809047       0.55904861       0.36225457 </v>
    <v>       0.66307143       0.39938929       0.35967929 </v>
    <v>       0.41791132       0.59768505       0.60327309 </v>
    <v>       0.42438662       0.34108315       0.60293950 </v>
    <v>       0.46630145       0.60004593       0.31243553 </v>
    <v>       0.47350070       0.34857420       0.31006576 </v>
    <v>       0.42710009       0.30578490       0.44864940 </v>
    <v>       0.41706815       0.64017942       0.45045461 </v>
    <v>       0.31397359       0.54403793       0.49810494 </v>
    <v>       0.31682913       0.39235051       0.49745393 </v>
    <v>       0.54311139       0.47633634       0.31042064 </v>
    <v>       0.56802291       0.54975469       0.59622085 </v>
    <v>       0.57182650       0.39766337       0.59505195 </v>
    <v>       0.66204844       0.47788122       0.49467593 </v>
    <v>       0.44739091       0.47007865       0.53756543 </v>
    <v>       0.53496030       0.55065105       0.44799599 </v>
    <v>       0.54056338       0.39969673       0.44584246 </v>
    <v>       0.40978433       0.47146384       0.39774057 </v>
    <v>       0.54274968       0.64803888       0.67548893 </v>
    <v>       0.47143722       0.70066411       0.65895224 </v>
   </varray>
  </structure>
  <varray name="forces" >
   <v>       0.70096721       0.02101246       0.13751435 </v>
   <v>      -0.01293311      -0.12892366      -0.59234283 </v>
   <v>      -0.28865566      -0.63237396       0.45881499 </v>
   <v>      -0.27849343       0.58489171       0.33157417 </v>
   <v>       0.68121478       0.01416804      -0.61094892 </v>
   <v>      -0.61377458      -0.48001053      -0.27882118 </v>
   <v>      -0.72634324       0.41807878      -0.09468521 </v>
   <v>       0.54028565      -0.46777575       0.53074386 </v>
   <v>       0.51061992       0.48352556       0.55194471 </v>
   <v>       0.37167412       0.01184385       0.70744386 </v>
   <v>      -0.14675985       0.56227856      -0.26388551 </v>
   <v>      -0.26913820      -0.29739105       0.99308508 </v>
   <v>      -0.48410141      -0.31108082       0.36911970 </v>
   <v>      -0.50183060       0.32172872       0.39994889 </v>
   <v>       0.51059943       0.48025444       0.25627070 </v>
   <v>       0.13900945       0.49967359      -0.37363160 </v>
   <v>      -0.04962598      -0.25902335       0.34967803 </v>
   <v>      -0.07974332       0.21151278       0.35580935 </v>
   <v>       0.33724790       0.26937286      -0.00763672 </v>
   <v>       0.30313638      -0.35583261      -0.13309563 </v>
   <v>       0.34278467      -0.19794188      -0.12284174 </v>
   <v>       0.24356806       0.21142272      -0.14315416 </v>
   <v>      -0.29305450       0.01867303       0.14068229 </v>
   <v>      -0.07395167       0.50607648       0.59240683 </v>
   <v>      -0.16486297       0.07848221      -0.32631297 </v>
   <v>      -0.35325813      -0.02140622      -0.10502891 </v>
   <v>      -0.42706138      -0.22206351       0.63269643 </v>
   <v>       0.21541233       0.57409018      -0.37492674 </v>
   <v>       0.29649663      -0.58636626      -0.36676349 </v>
   <v>      -0.20682717       0.02979362      -0.56654543 </v>
   <v>      -0.80411712      -0.23305190      -1.46372890 </v>
   <v>       0.58151580      -1.10363809      -0.98338328 </v>
  </varray>
  <varray name="stress" >
   <v>      -8.30456675       0.05120810      -0.26141031 </v>
   <v>       0.05120810      -7.49826867      -0.52640388 </v>
   <v>      -0.26141031      -0.52640387      -7.72686230 </v>
  </varray>
  <energy>
   <i name="e_fr_energy">   -133.59517738 </i>
   <i name="e_wo_entrp">   -133.58279893 </i>
   <i name="e_0_energy">   -133.58898816 </i>
  </energy>
  <time name="totalsc">  266.11  267.32</time>
 </calculation>
 <calculation>
  <scstep>
   <time name="dav">    3.63    3.64</time>
   <time name="total">    4.24    4.25</time>
   <energy>
    <i name="alphaZ">    113.16553179 </i>
    <i name="ewald">  54653.21923474 </i>
    <i name="hartreedc"> -84610.83425999 </i>
    <i name="XCdc">    914.15689811 </i>
    <i name="pawpsdc">  32506.29637695 </i>
    <i name="pawaedc"> -34545.79252972 </i>
    <i name="eentropy">     -0.01179321 </i>
    <i name="bandstr">  -1519.21118439 </i>
    <i name="atom">  32354.87237921 </i>
    <i name="e_fr_energy">   -134.13934651 </i>
    <i name="e_wo_entrp">   -134.12755329 </i>
    <i name="e_0_energy">   -134.13344990 </i>
   </energy>
  </scstep>
  <scstep>
   <time name="dav">    4.40    4.41</time>
   <time name="total">    5.02    5.04</time>
   <energy>
    <i name="e_fr_energy">   -137.25572898 </i>
    <i name="e_wo_entrp">   -137.24715658 </i>
    <i name="e_0_energy">   -137.25144278 </i>
   </energy>
  </scstep>
  <scstep>
   <time name="dav">    3.80    3.81</time>
   <time name="total">    4.42    4.43</time>
   <energy>
    <i name="e_fr_energy">   -134.52833001 </i>
    <i name="e_wo_entrp">   -134.52107933 </i>
    <i name="e_0_energy">   -134.52470467 </i>
   </energy>
  </scstep>
  <scstep>
   <time name="dav">    4.47    4.48</time>
   <time name="total">    5.09    5.11</time>
   <energy>
    <i name="e_fr_energy">   -134.31420454 </i>
    <i name="e_wo_entrp">   -134.30160114 </i>
    <i name="e_0_energy">   -134.30790284 </i>
   </energy>
  </scstep>
  <scstep>
   <time name="dav">    4.08    4.09</time>
   <time name="total">    4.70    4.72</time>
   <energy>
    <i name="e_fr_energy">   -134.53718671 </i>
    <i name="e_wo_entrp">   -134.52306813 </i>
    <i name="e_0_energy">   -134.53012742 </i>
   </energy>
  </scstep>
  <scstep>
   <time name="dav">    3.91    3.92</time>
   <time name="total">    4.53    4.55</time>
   <energy>
    <i name="e_fr_energy">   -134.32240855 </i>
    <i name="e_wo_entrp">   -134.30942189 </i>
    <i name="e_0_energy">   -134.31591522 </i>
   </energy>
  </scstep>
  <scstep>
   <time name="dav">    4.03    4.04</time>
   <time name="total">    4.65    4.67</time>
   <energy>
    <i name="e_fr_energy">   -134.33836972 </i>
    <i name="e_wo_entrp">   -134.32625723 </i>
    <i name="e_0_energy">   -134.33231348 </i>
   </energy>
  </scstep>
  <scstep>
   <time name="dav">    3.97    3.98</time>
   <time name="total">    4.58    4.60</time>
   <energy>
    <i name="e_fr_energy">   -134.36570026 </i>
    <i name="e_wo_entrp">   -134.35454904 </i>
    <i name="e_0_energy">   -134.36012465 </i>
   </energy>
  </scstep>
  <scstep>
   <time name="dav">    3.87    3.88</time>
   <time name="total">    4.49    4.51</time>
   <energy>
    <i name="e_fr_energy">   -134.33887179 </i>
    <i name="e_wo_entrp">   -134.32731770 </i>
    <i name="e_0_energy">   -134.33309475 </i>
   </energy>
  </scstep>
  <scstep>
   <time name="dav">    4.03    4.04</time>
   <time name="total">    4.64    4.66</time>
   <energy>
    <i name="e_fr_energy">   -134.34937826 </i>
    <i name="e_wo_entrp">   -134.33891250 </i>
    <i name="e_0_energy">   -134.34414538 </i>
   </energy>
  </scstep>
  <scstep>
   <time name="dav">    4.11    4.12</time>
   <time name="total">    4.73    4.75</time>
   <energy>
    <i name="e_fr_energy">   -134.35166794 </i>
    <i name="e_wo_entrp">   -134.33996478 </i>
    <i name="e_0_energy">   -134.34581636 </i>
   </energy>
  </scstep>
  <scstep>
   <time name="dav">    3.98    3.99</time>
   <time name="total">    4.60    4.62</time>
   <energy>
    <i name="e_fr_energy">   -134.34170290 </i>
    <i name="e_wo_entrp">   -134.32802692 </i>
    <i name="e_0_energy">   -134.33486491 </i>
   </energy>
  </scstep>
  <scstep>
   <time name="dav">    4.06    4.07</time>
   <time name="total">    4.68    4.69</time>
   <energy>
    <i name="e_fr_energy">   -134.33986933 </i>
    <i name="e_wo_entrp">   -134.32865452 </i>
    <i name="e_0_energy">   -134.33426193 </i>
   </energy>
  </scstep>
  <scstep>
   <time name="dav">    4.02    4.03</time>
   <time name="total">    4.64    4.66</time>
   <energy>
    <i name="e_fr_energy">   -134.34121972 </i>
    <i name="e_wo_entrp">   -134.32835898 </i>
    <i name="e_0_energy">   -134.33478935 </i>
   </energy>
  </scstep>
  <scstep>
   <time name="dav">    3.87    3.88</time>
   <time name="total">    4.49    4.51</time>
   <energy>
    <i name="e_fr_energy">   -134.33903143 </i>
    <i name="e_wo_entrp">   -134.32726183 </i>
    <i name="e_0_energy">   -134.33314663 </i>
   </energy>
  </scstep>
  <scstep>
   <time name="dav">    4.29    4.30</time>
   <time name="total">    4.91    4.92</time>
   <energy>
    <i name="e_fr_energy">   -134.34032239 </i>
    <i name="e_wo_entrp">   -134.32820668 </i>
    <i name="e_0_energy">   -134.33426453 </i>
   </energy>
  </scstep>
  <scstep>
   <time name="dav">    3.90    3.91</time>
   <time name="total">    4.52    4.54</time>
   <energy>
    <i name="e_fr_energy">   -134.34004799 </i>
    <i name="e_wo_entrp">   -134.32832299 </i>
    <i name="e_0_energy">   -134.33418549 </i>
   </energy>
  </scstep>
  <scstep>
   <time name="dav">    3.66    3.67</time>
   <time name="total">    4.28    4.29</time>
   <energy>
    <i name="e_fr_energy">   -134.34048242 </i>
    <i name="e_wo_entrp">   -134.32897398 </i>
    <i name="e_0_energy">   -134.33472820 </i>
   </energy>
  </scstep>
  <scstep>
   <time name="dav">    3.52    3.53</time>
   <time name="total">    4.14    4.16</time>
   <energy>
    <i name="e_fr_energy">   -134.34113109 </i>
    <i name="e_wo_entrp">   -134.32952568 </i>
    <i name="e_0_energy">   -134.33532838 </i>
   </energy>
  </scstep>
  <scstep>
   <time name="dav">    3.04    3.04</time>
   <time name="total">    3.47    3.49</time>
   <energy>
    <i name="alphaZ">    113.16553179 </i>
    <i name="ewald">  54653.21923474 </i>
    <i name="hartreedc"> -84605.43991074 </i>
    <i name="XCdc">    913.71079732 </i>
    <i name="pawpsdc">  32771.66685775 </i>
    <i name="pawaedc"> -34814.22727984 </i>
    <i name="eentropy">     -0.01163446 </i>
    <i name="bandstr">  -1521.29712624 </i>
    <i name="atom">  32354.87237921 </i>
    <i name="e_fr_energy">   -134.34115046 </i>
    <i name="e_wo_entrp">   -134.32951600 </i>
    <i name="e_0_energy">   -134.33533323 </i>
   </energy>
  </scstep>
  <structure>
   <crystal>
    <varray name="basis" >
     <v>      16.00000000       0.00000000       0.00000000 </v>
     <v>       0.00000000      16.00000000       0.00000000 </v>
     <v>       0.00000000       0.00000000      16.00000000 </v>
    </varray>
    <i name="volume">   4096.00000000 </i>
    <varray name="rec_basis" >
     <v>       0.06250000       0.00000000       0.00000000 </v>
     <v>       0.00000000       0.06250000       0.00000000 </v>
     <v>       0.00000000       0.00000000       0.06250000 </v>
    </varray>
   </crystal>
   <varray name="positions" >
    <v>       0.25102128       0.46722439       0.38268963 </v>
    <v>       0.47071400       0.47044731       0.68424681 </v>
    <v>       0.56422895       0.68296422       0.39246151 </v>
    <v>       0.57557107       0.26972003       0.38801719 </v>
    <v>       0.33187319       0.46741479       0.62948498 </v>
    <v>       0.65937064       0.62786560       0.49726107 </v>
    <v>       0.66731793       0.32766063       0.49444617 </v>
    <v>       0.32300720       0.58693159       0.34497615 </v>
    <v>       0.32969969       0.35226763       0.34356795 </v>
    <v>       0.38752118       0.47228517       0.25788516 </v>
    <v>       0.53921936       0.26406272       0.53550347 </v>
    <v>       0.52715100       0.68401680       0.54308950 </v>
    <v>       0.65663083       0.55811065       0.36336753 </v>
    <v>       0.66155833       0.40035935       0.36088520 </v>
    <v>       0.41945087       0.59913310       0.60404579 </v>
    <v>       0.42480576       0.34258975       0.60181294 </v>
    <v>       0.46615182       0.59926493       0.31348986 </v>
    <v>       0.47326027       0.34921195       0.31113858 </v>
    <v>       0.42811695       0.30659710       0.44862637 </v>
    <v>       0.41798216       0.63910652       0.45005331 </v>
    <v>       0.31500714       0.54344111       0.49773455 </v>
    <v>       0.31756353       0.39298798       0.49702230 </v>
    <v>       0.54222778       0.47639264       0.31084482 </v>
    <v>       0.56779993       0.55128060       0.59800705 </v>
    <v>       0.57132941       0.39790000       0.59406806 </v>
    <v>       0.66098331       0.47781668       0.49435925 </v>
    <v>       0.44610325       0.46940909       0.53947312 </v>
    <v>       0.53560981       0.55238203       0.44686553 </v>
    <v>       0.54145737       0.39792874       0.44473661 </v>
    <v>       0.40916071       0.47155367       0.39603234 </v>
    <v>       0.54032514       0.64733619       0.67107554 </v>
    <v>       0.47319059       0.69733646       0.65598718 </v>
   </varray>
  </structure>
  <varray name="forces" >
   <v>       0.38282279       0.01195031       0.10898634 </v>
   <v>       0.09324585      -0.11249587      -0.23294821 </v>
   <v>      -0.23853822      -0.19548180       0.32509562 </v>
   <v>      -0.20147076       0.15085827       0.05971742 </v>
   <v>       0.27099214       0.04826281      -0.32429320 </v>
   <v>      -0.43349270      -0.31692544      -0.11587430 </v>
   <v>      -0.41952256       0.31087296       0.01544351 </v>
   <v>       0.38106630      -0.24530868       0.39530749 </v>
   <v>       0.35925903       0.22522390       0.39380569 </v>
   <v>       0.28221279       0.00641949       0.14814193 </v>
   <v>      -0.14728991       0.33777566      -0.10087052 </v>
   <v>      -0.18566660      -0.14597363       0.85651161 </v>
   <v>      -0.26493675      -0.24271460       0.13765137 </v>
   <v>      -0.26929951       0.28660435       0.16122398 </v>
   <v>       0.34792015       0.28697578       0.24159964 </v>
   <v>       0.05233139       0.17007641      -0.17712770 </v>
   <v>      -0.00292197      -0.13428689       0.14644198 </v>
   <v>      -0.03928011       0.10953718       0.13552662 </v>
   <v>       0.15106717       0.12679480       0.02037057 </v>
   <v>       0.22502054      -0.16564313       0.05141931 </v>
   <v>       0.31088858      -0.01794224      -0.00385960 </v>
   <v>       0.19414475       0.07253057      -0.11485576 </v>
   <v>      -0.20598615      -0.01429410       0.03780127 </v>
   <v>      -0.05115106       0.25859780       0.38708008 </v>
   <v>      -0.11603293       0.19802250      -0.18856627 </v>
   <v>      -0.32506471       0.02647644       0.05927370 </v>
   <v>       0.10627723       0.11715006      -0.32104242 </v>
   <v>      -0.07000112      -0.15635399       0.08142068 </v>
   <v>      -0.10631063       0.15456157      -0.05049744 </v>
   <v>       0.13110236       0.03276414       0.24824984 </v>
   <v>      -0.68052326      -0.24138540      -1.40291265 </v>
   <v>       0.46913789      -0.94264924      -0.97822057 </v>
  </varray>
  <varray name="stress" >
   <v>      -5.91140954       0.06313999      -0.33356718 </v>
   <v>       0.06313997      -4.96195819      -0.63255675 </v>
   <v>      -0.33356718      -0.63255673      -5.43282409 </v>
  </varray>
  <energy>
   <i name="e_fr_energy">   -134.34115046 </i>
   <i name="e_wo_entrp">   -134.32951600 </i>
   <i name="e_0_energy">   -134.33533323 </i>
  </energy>
  <time name="totalsc">   96.26   96.64</time>
 </calculation>
 <calculation>
  <scstep>
   <time name="dav">    3.63    3.64</time>
   <time name="total">    4.25    4.26</time>
   <energy>
    <i name="alphaZ">    113.16553179 </i>
    <i name="ewald">  55426.39001965 </i>
    <i name="hartreedc"> -85370.57386394 </i>
    <i name="XCdc">    914.93933759 </i>
    <i name="pawpsdc">  32771.64114526 </i>
    <i name="pawaedc"> -34814.20024019 </i>
    <i name="eentropy">     -0.00973085 </i>
    <i name="bandstr">  -1530.97071268 </i>
    <i name="atom">  32354.87237921 </i>
    <i name="e_fr_energy">   -134.74613415 </i>
    <i name="e_wo_entrp">   -134.73640331 </i>
    <i name="e_0_energy">   -134.74126873 </i>
   </energy>
  </scstep>
  <scstep>
   <time name="dav">    4.15    4.16</time>
   <time name="total">    4.77    4.79</time>
   <energy>
    <i name="e_fr_energy">   -137.80945133 </i>
    <i name="e_wo_entrp">   -137.80000723 </i>
    <i name="e_0_energy">   -137.80472928 </i>
   </energy>
  </scstep>
  <scstep>
   <time name="dav">    3.89    3.89</time>
   <time name="total">    4.50    4.52</time>
   <energy>
    <i name="e_fr_energy">   -135.02146831 </i>
    <i name="e_wo_entrp">   -135.01516679 </i>
    <i name="e_0_energy">   -135.01831755 </i>
   </energy>
  </scstep>
  <scstep>
   <time name="dav">    4.48    4.49</time>
   <time name="total">    5.09    5.11</time>
   <energy>
    <i name="e_fr_energy">   -134.80605182 </i>
    <i name="e_wo_entrp">   -134.79583175 </i>
    <i name="e_0_energy">   -134.80094179 </i>
   </energy>
  </scstep>
  <scstep>
   <time name="dav">    4.48    4.49</time>
   <time name="total">    5.10    5.12</time>
   <energy>
    <i name="e_fr_energy">   -134.92525106 </i>
    <i name="e_wo_entrp">   -134.91202972 </i>
    <i name="e_0_energy">   -134.91864039 </i>
   </energy>
  </scstep>
  <scstep>
   <time name="dav">    3.85    3.86</time>
   <time name="total">    4.47    4.48</time>
   <energy>
    <i name="e_fr_energy">   -134.84650463 </i>
    <i name="e_wo_entrp">   -134.83666313 </i>
    <i name="e_0_energy">   -134.84158388 </i>
   </energy>
  </scstep>
  <scstep>
   <time name="dav">    3.84    3.85</time>
   <time name="total">    4.46    4.47</time>
   <energy>
    <i name="e_fr_energy">   -134.83868253 </i>
    <i name="e_wo_entrp">   -134.82839474 </i>
    <i name="e_0_energy">   -134.83353864 </i>
   </energy>
  </scstep>
  <scstep>
   <time name="dav">    4.18    4.19</time>
   <time name="total">    4.79    4.81</time>
   <energy>
    <i name="e_fr_energy">   -134.85423268 </i>
    <i name="e_wo_entrp">   -134.84432529 </i>
    <i name="e_0_energy">   -134.84927899 </i>
   </energy>
  </scstep>
  <scstep>
   <time name="dav">    3.89    3.90</time>
   <time name="total">    4.51    4.54</time>
   <energy>
    <i name="e_fr_energy">   -134.84417399 </i>
    <i name="e_wo_entrp">   -134.83244932 </i>
    <i name="e_0_energy">   -134.83831165 </i>
   </energy>
  </scstep>
  <scstep>
   <time name="dav">    3.87    3.88</time>
   <time name="total">    4.49    4.51</time>
   <energy>
    <i name="e_fr_energy">   -134.84058572 </i>
    <i name="e_wo_entrp">   -134.83211694 </i>
    <i name="e_0_energy">   -134.83635133 </i>
   </energy>
  </scstep>
  <scstep>
   <time name="dav">    4.14    4.15</time>
   <time name="total">    4.76    4.77</time>
   <energy>
    <i name="e_fr_energy">   -134.84746934 </i>
    <i name="e_wo_entrp">   -134.83643167 </i>
    <i name="e_0_energy">   -134.84195051 </i>
   </energy>
  </scstep>
  <scstep>
   <time name="dav">    3.93    3.94</time>
   <time name="total">    4.54    4.57</time>
   <energy>
    <i name="e_fr_energy">   -134.84094919 </i>
    <i name="e_wo_entrp">   -134.83079079 </i>
    <i name="e_0_energy">   -134.83586999 </i>
   </energy>
  </scstep>
  <scstep>
   <time name="dav">    4.06    4.07</time>
   <time name="total">    4.68    4.69</time>
   <energy>
    <i name="e_fr_energy">   -134.83988204 </i>
    <i name="e_wo_entrp">   -134.82934007 </i>
    <i name="e_0_energy">   -134.83461105 </i>
   </energy>
  </scstep>
  <scstep>
   <time name="dav">    4.28    4.29</time>
   <time name="total">    4.90    4.92</time>
   <energy>
    <i name="e_fr_energy">   -134.84190384 </i>
    <i name="e_wo_entrp">   -134.83182253 </i>
    <i name="e_0_energy">   -134.83686319 </i>
   </energy>
  </scstep>
  <scstep>
   <time name="dav">    3.87    3.88</time>
   <time name="total">    4.49    4.51</time>
   <energy>
    <i name="e_fr_energy">   -134.84015157 </i>
    <i name="e_wo_entrp">   -134.82961240 </i>
    <i name="e_0_energy">   -134.83488198 </i>
   </energy>
  </scstep>
  <scstep>
   <time name="dav">    3.89    3.90</time>
   <time name="total">    4.51    4.52</time>
   <energy>
    <i name="e_fr_energy">   -134.84033676 </i>
    <i name="e_wo_entrp">   -134.83004195 </i>
    <i name="e_0_energy">   -134.83518936 </i>
   </energy>
  </scstep>
  <scstep>
   <time name="dav">    3.67    3.68</time>
   <time name="total">    4.29    4.31</time>
   <energy>
    <i name="e_fr_energy">   -134.84100884 </i>
    <i name="e_wo_entrp">   -134.83065287 </i>
    <i name="e_0_energy">   -134.83583086 </i>
   </energy>
  </scstep>
  <scstep>
   <time name="dav">    3.34    3.35</time>
   <time name="total">    3.96    3.98</time>
   <energy>
    <i name="e_fr_energy">   -134.84089304 </i>
    <i name="e_wo_entrp">   -134.83090357 </i>
    <i name="e_0_energy">   -134.83589830 </i>
   </energy>
  </scstep>
  <scstep>
   <time name="dav">    2.86    2.86</time>
   <time name="total">    3.48    3.49</time>
   <energy>
    <i name="e_fr_energy">   -134.84139152 </i>
    <i name="e_wo_entrp">   -134.83142820 </i>
    <i name="e_0_energy">   -134.83640986 </i>
   </energy>
  </scstep>
  <scstep>
   <time name="dav">    2.69    2.70</time>
   <time name="total">    3.31    3.32</time>
   <energy>
    <i name="e_fr_energy">   -134.84156205 </i>
    <i name="e_wo_entrp">   -134.83161709 </i>
    <i name="e_0_energy">   -134.83658957 </i>
   </energy>
  </scstep>
  <scstep>
   <time name="dav">    2.69    2.70</time>
   <time name="total">    3.32    3.33</time>
   <energy>
    <i name="e_fr_energy">   -134.84172247 </i>
    <i name="e_wo_entrp">   -134.83180692 </i>
    <i name="e_0_energy">   -134.83676469 </i>
   </energy>
  </scstep>
  <scstep>
   <time name="dav">    2.72    2.73</time>
   <time name="total">    3.34    3.35</time>
   <energy>
    <i name="e_fr_energy">   -134.84207802 </i>
    <i name="e_wo_entrp">   -134.83212487 </i>
    <i name="e_0_energy">   -134.83710145 </i>
   </energy>
  </scstep>
  <scstep>
   <time name="dav">    2.70    2.70</time>
   <time name="total">    3.32    3.34</time>
   <energy>
    <i name="e_fr_energy">   -134.84223149 </i>
    <i name="e_wo_entrp">   -134.83225762 </i>
    <i name="e_0_energy">   -134.83724456 </i>
   </energy>
  </scstep>
  <scstep>
   <time name="dav">    2.67    2.67</time>
   <time name="total">    3.29    3.30</time>
   <energy>
    <i name="e_fr_energy">   -134.84243533 </i>
    <i name="e_wo_entrp">   -134.83244633 </i>
    <i name="e_0_energy">   -134.83744083 </i>
   </energy>
  </scstep>
  <scstep>
   <time name="dav">    2.72    2.73</time>
   <time name="total">    3.35    3.37</time>
   <energy>
    <i name="e_fr_energy">   -134.84272075 </i>
    <i name="e_wo_entrp">   -134.83271020 </i>
    <i name="e_0_energy">   -134.83771548 </i>
   </energy>
  </scstep>
  <scstep>
   <time name="dav">    2.70    2.70</time>
   <time name="total">    3.13    3.14</time>
   <energy>
    <i name="alphaZ">    113.16553179 </i>
    <i name="ewald">  55426.39001965 </i>
    <i name="hartreedc"> -85367.12042998 </i>
    <i name="XCdc">    914.64667171 </i>
    <i name="pawpsdc">  32953.89605856 </i>
    <i name="pawaedc"> -34998.48223361 </i>
    <i name="eentropy">     -0.00996060 </i>
    <i name="bandstr">  -1532.20084555 </i>
    <i name="atom">  32354.87237921 </i>
    <i name="e_fr_energy">   -134.84280881 </i>
    <i name="e_wo_entrp">   -134.83284821 </i>
    <i name="e_0_energy">   -134.83782851 </i>
   </energy>
  </scstep>
  <structure>
   <crystal>
    <varray name="basis" >
     <v>      16.00000000       0.00000000       0.00000000 </v>
     <v>       0.00000000      16.00000000       0.00000000 </v>
     <v>       0.00000000       0.00000000      16.00000000 </v>
    </varray>
    <i name="volume">   4096.00000000 </i>
    <varray name="rec_basis" >
     <v>       0.06250000       0.00000000       0.00000000 </v>
     <v>       0.00000000       0.06250000       0.00000000 </v>
     <v>       0.00000000       0.00000000       0.06250000 </v>
    </varray>
   </crystal>
   <varray name="positions" >
    <v>       0.25250563       0.46727072       0.38311221 </v>
    <v>       0.47107555       0.47001112       0.68334358 </v>
    <v>       0.56330405       0.68220627       0.39372203 </v>
    <v>       0.57478989       0.27030496       0.38824874 </v>
    <v>       0.33292393       0.46760193       0.62822757 </v>
    <v>       0.65768983       0.62663676       0.49681178 </v>
    <v>       0.66569128       0.32886600       0.49450605 </v>
    <v>       0.32448474       0.58598043       0.34650890 </v>
    <v>       0.33109268       0.35314091       0.34509488 </v>
    <v>       0.38861543       0.47231006       0.25845956 </v>
    <v>       0.53864826       0.26537241       0.53511236 </v>
    <v>       0.52643110       0.68345080       0.54641051 </v>
    <v>       0.65560357       0.55716955       0.36390125 </v>
    <v>       0.66051415       0.40147063       0.36151033 </v>
    <v>       0.42079988       0.60024581       0.60498256 </v>
    <v>       0.42500867       0.34324920       0.60112615 </v>
    <v>       0.46614049       0.59874425       0.31405767 </v>
    <v>       0.47310796       0.34963667       0.31166407 </v>
    <v>       0.42870269       0.30708874       0.44870535 </v>
    <v>       0.41885465       0.63846426       0.45025268 </v>
    <v>       0.31621257       0.54337154       0.49771959 </v>
    <v>       0.31831630       0.39326921       0.49657696 </v>
    <v>       0.54142909       0.47633722       0.31099139 </v>
    <v>       0.56760160       0.55228328       0.59950791 </v>
    <v>       0.57087951       0.39866781       0.59333692 </v>
    <v>       0.65972291       0.47791934       0.49458907 </v>
    <v>       0.44651532       0.46986333       0.53822832 </v>
    <v>       0.53533838       0.55177578       0.44718123 </v>
    <v>       0.54104516       0.39852804       0.44454081 </v>
    <v>       0.40966905       0.47168071       0.39699490 </v>
    <v>       0.53768649       0.64640025       0.66563592 </v>
    <v>       0.47500962       0.69368145       0.65219425 </v>
   </varray>
  </structure>
  <varray name="forces" >
   <v>       0.19410581       0.01296233       0.08686778 </v>
   <v>       0.06640172      -0.10489484      -0.16032031 </v>
   <v>      -0.22573303      -0.06687628       0.30264562 </v>
   <v>      -0.15800183       0.07182208      -0.00119273 </v>
   <v>       0.18797386       0.06586463      -0.20838604 </v>
   <v>      -0.31626723      -0.18018607      -0.01692637 </v>
   <v>      -0.25754785       0.21386652       0.03147346 </v>
   <v>       0.23276004      -0.10041293       0.27419039 </v>
   <v>       0.22841784       0.08768340       0.26005988 </v>
   <v>       0.25334095       0.00631848       0.11533711 </v>
   <v>      -0.11301006       0.18262252      -0.00972037 </v>
   <v>      -0.04226303       0.01343340       0.62940998 </v>
   <v>      -0.18932871      -0.16388081       0.04094298 </v>
   <v>      -0.16158059       0.21287557       0.05581717 </v>
   <v>       0.11938198      -0.02479938       0.22000607 </v>
   <v>       0.02329292       0.13725952      -0.11287230 </v>
   <v>       0.05363863      -0.05855462       0.08362452 </v>
   <v>       0.00903868       0.04531963       0.03040975 </v>
   <v>       0.07762997       0.03937701       0.02491931 </v>
   <v>       0.20404132      -0.03584439       0.14732051 </v>
   <v>       0.20580157       0.07294502       0.08376407 </v>
   <v>       0.12931427       0.02130356      -0.03687751 </v>
   <v>      -0.15077984      -0.01198210      -0.06372147 </v>
   <v>       0.01754551      -0.00208863       0.21925032 </v>
   <v>      -0.09811494       0.21322160      -0.06512250 </v>
   <v>      -0.19868864       0.03993532       0.14163554 </v>
   <v>       0.10509670       0.17692491      -0.01715548 </v>
   <v>      -0.05336563      -0.10417421       0.10600445 </v>
   <v>      -0.10344353       0.09807306      -0.06136212 </v>
   <v>       0.16431811       0.01601352       0.05046831 </v>
   <v>      -0.49552142      -0.22412485      -1.25065963 </v>
   <v>       0.29154643      -0.65000294      -0.89983039 </v>
  </varray>
  <varray name="stress" >
   <v>      -4.08586842       0.06001747      -0.41130104 </v>
   <v>       0.06001747      -3.27519955      -0.67936820 </v>
   <v>      -0.41130103      -0.67936821      -3.92241863 </v>
  </varray>
  <energy>
   <i name="e_fr_energy">   -134.84280881 </i>
   <i name="e_wo_entrp">   -134.83284821 </i>
   <i name="e_0_energy">   -134.83782851 </i>
  </energy>
  <time name="totalsc">  114.52  115.01</time>
 </calculation>
 <calculation>
  <scstep>
   <time name="dav">    3.63    3.64</time>
   <time name="total">    4.24    4.25</time>
   <energy>
    <i name="alphaZ">    113.16553179 </i>
    <i name="ewald">  56390.51125542 </i>
    <i name="hartreedc"> -86319.53702454 </i>
    <i name="XCdc">    916.30804984 </i>
    <i name="pawpsdc">  32953.81253082 </i>
    <i name="pawaedc"> -34998.39591989 </i>
    <i name="eentropy">     -0.00732161 </i>
    <i name="bandstr">  -1545.84521705 </i>
    <i name="atom">  32354.87237921 </i>
    <i name="e_fr_energy">   -135.11573600 </i>
    <i name="e_wo_entrp">   -135.10841439 </i>
    <i name="e_0_energy">   -135.11207519 </i>
   </energy>
  </scstep>
  <scstep>
   <time name="dav">    4.19    4.20</time>
   <time name="total">    4.80    4.82</time>
   <energy>
    <i name="e_fr_energy">   -141.04431672 </i>
    <i name="e_wo_entrp">   -141.02936427 </i>
    <i name="e_0_energy">   -141.03684050 </i>
   </energy>
  </scstep>
  <scstep>
   <time name="dav">    3.85    3.86</time>
   <time name="total">    4.47    4.49</time>
   <energy>
    <i name="e_fr_energy">   -135.99555425 </i>
    <i name="e_wo_entrp">   -135.99038226 </i>
    <i name="e_0_energy">   -135.99296826 </i>
   </energy>
  </scstep>
  <scstep>
   <time name="dav">    4.29    4.30</time>
   <time name="total">    4.91    4.92</time>
   <energy>
    <i name="e_fr_energy">   -135.27414948 </i>
    <i name="e_wo_entrp">   -135.26647173 </i>
    <i name="e_0_energy">   -135.27031061 </i>
   </energy>
  </scstep>
  <scstep>
   <time name="dav">    4.71    4.73</time>
   <time name="total">    5.33    5.35</time>
   <energy>
    <i name="e_fr_energy">   -135.42872849 </i>
    <i name="e_wo_entrp">   -135.41628257 </i>
    <i name="e_0_energy">   -135.42250553 </i>
   </energy>
  </scstep>
  <scstep>
   <time name="dav">    3.90    3.91</time>
   <time name="total">    4.51    4.53</time>
   <energy>
    <i name="e_fr_energy">   -135.36566211 </i>
    <i name="e_wo_entrp">   -135.35798283 </i>
    <i name="e_0_energy">   -135.36182247 </i>
   </energy>
  </scstep>
  <scstep>
   <time name="dav">    3.85    3.86</time>
   <time name="total">    4.47    4.49</time>
   <energy>
    <i name="e_fr_energy">   -135.30742209 </i>
    <i name="e_wo_entrp">   -135.29734741 </i>
    <i name="e_0_energy">   -135.30238475 </i>
   </energy>
  </scstep>
  <scstep>
   <time name="dav">    4.15    4.16</time>
   <time name="total">    4.76    4.79</time>
   <energy>
    <i name="e_fr_energy">   -135.33191469 </i>
    <i name="e_wo_entrp">   -135.32472869 </i>
    <i name="e_0_energy">   -135.32832169 </i>
   </energy>
  </scstep>
  <scstep>
   <time name="dav">    3.90    3.91</time>
   <time name="total">    4.52    4.54</time>
   <energy>
    <i name="e_fr_energy">   -135.32281714 </i>
    <i name="e_wo_entrp">   -135.30934568 </i>
    <i name="e_0_energy">   -135.31608141 </i>
   </energy>
  </scstep>
  <scstep>
   <time name="dav">    3.89    3.90</time>
   <time name="total">    4.51    4.52</time>
   <energy>
    <i name="e_fr_energy">   -135.30931399 </i>
    <i name="e_wo_entrp">   -135.30164478 </i>
    <i name="e_0_energy">   -135.30547939 </i>
   </energy>
  </scstep>
  <scstep>
   <time name="dav">    4.26    4.27</time>
   <time name="total">    4.88    4.90</time>
   <energy>
    <i name="e_fr_energy">   -135.32592238 </i>
    <i name="e_wo_entrp">   -135.31650315 </i>
    <i name="e_0_energy">   -135.32121276 </i>
   </energy>
  </scstep>
  <scstep>
   <time name="dav">    4.09    4.10</time>
   <time name="total">    4.70    4.72</time>
   <energy>
    <i name="e_fr_energy">   -135.31504447 </i>
    <i name="e_wo_entrp">   -135.30454459 </i>
    <i name="e_0_energy">   -135.30979453 </i>
   </energy>
  </scstep>
  <scstep>
   <time name="dav">    3.85    3.85</time>
   <time name="total">    4.46    4.48</time>
   <energy>
    <i name="e_fr_energy">   -135.30684579 </i>
    <i name="e_wo_entrp">   -135.29783051 </i>
    <i name="e_0_energy">   -135.30233815 </i>
   </energy>
  </scstep>
  <scstep>
   <time name="dav">    4.26    4.27</time>
   <time name="total">    4.87    4.89</time>
   <energy>
    <i name="e_fr_energy">   -135.30946297 </i>
    <i name="e_wo_entrp">   -135.29974936 </i>
    <i name="e_0_energy">   -135.30460617 </i>
   </energy>
  </scstep>
  <scstep>
   <time name="dav">    3.85    3.86</time>
   <time name="total">    4.47    4.49</time>
   <energy>
    <i name="e_fr_energy">   -135.30504587 </i>
    <i name="e_wo_entrp">   -135.29639834 </i>
    <i name="e_0_energy">   -135.30072211 </i>
   </energy>
  </scstep>
  <scstep>
   <time name="dav">    4.49    4.50</time>
   <time name="total">    5.11    5.13</time>
   <energy>
    <i name="e_fr_energy">   -135.30627590 </i>
    <i name="e_wo_entrp">   -135.29756885 </i>
    <i name="e_0_energy">   -135.30192237 </i>
   </energy>
  </scstep>
  <scstep>
   <time name="dav">    4.00    4.01</time>
   <time name="total">    4.62    4.64</time>
   <energy>
    <i name="e_fr_energy">   -135.30689032 </i>
    <i name="e_wo_entrp">   -135.29826878 </i>
    <i name="e_0_energy">   -135.30257955 </i>
   </energy>
  </scstep>
  <scstep>
   <time name="dav">    3.90    3.91</time>
   <time name="total">    4.51    4.54</time>
   <energy>
    <i name="e_fr_energy">   -135.30685798 </i>
    <i name="e_wo_entrp">   -135.29884747 </i>
    <i name="e_0_energy">   -135.30285273 </i>
   </energy>
  </scstep>
  <scstep>
   <time name="dav">    4.26    4.27</time>
   <time name="total">    4.88    4.91</time>
   <energy>
    <i name="e_fr_energy">   -135.30852648 </i>
    <i name="e_wo_entrp">   -135.30001565 </i>
    <i name="e_0_energy">   -135.30427107 </i>
   </energy>
  </scstep>
  <scstep>
   <time name="dav">    3.86    3.87</time>
   <time name="total">    4.48    4.50</time>
   <energy>
    <i name="e_fr_energy">   -135.30836345 </i>
    <i name="e_wo_entrp">   -135.29984661 </i>
    <i name="e_0_energy">   -135.30410503 </i>
   </energy>
  </scstep>
  <scstep>
   <time name="dav">    3.22    3.22</time>
   <time name="total">    3.84    3.85</time>
   <energy>
    <i name="e_fr_energy">   -135.30875336 </i>
    <i name="e_wo_entrp">   -135.30014821 </i>
    <i name="e_0_energy">   -135.30445079 </i>
   </energy>
  </scstep>
  <scstep>
   <time name="dav">    2.79    2.80</time>
   <time name="total">    3.41    3.43</time>
   <energy>
    <i name="e_fr_energy">   -135.30935458 </i>
    <i name="e_wo_entrp">   -135.30081448 </i>
    <i name="e_0_energy">   -135.30508453 </i>
   </energy>
  </scstep>
  <scstep>
   <time name="dav">    2.77    2.78</time>
   <time name="total">    3.39    3.41</time>
   <energy>
    <i name="e_fr_energy">   -135.30951023 </i>
    <i name="e_wo_entrp">   -135.30098637 </i>
    <i name="e_0_energy">   -135.30524830 </i>
   </energy>
  </scstep>
  <scstep>
   <time name="dav">    2.70    2.70</time>
   <time name="total">    3.32    3.33</time>
   <energy>
    <i name="e_fr_energy">   -135.30997532 </i>
    <i name="e_wo_entrp">   -135.30143513 </i>
    <i name="e_0_energy">   -135.30570523 </i>
   </energy>
  </scstep>
  <scstep>
   <time name="dav">    2.83    2.83</time>
   <time name="total">    3.45    3.46</time>
   <energy>
    <i name="e_fr_energy">   -135.31026444 </i>
    <i name="e_wo_entrp">   -135.30182378 </i>
    <i name="e_0_energy">   -135.30604411 </i>
   </energy>
  </scstep>
  <scstep>
   <time name="dav">    2.72    2.73</time>
   <time name="total">    3.34    3.36</time>
   <energy>
    <i name="e_fr_energy">   -135.31048914 </i>
    <i name="e_wo_entrp">   -135.30204576 </i>
    <i name="e_0_energy">   -135.30626745 </i>
   </energy>
  </scstep>
  <scstep>
   <time name="dav">    2.65    2.66</time>
   <time name="total">    3.28    3.30</time>
   <energy>
    <i name="e_fr_energy">   -135.31085606 </i>
    <i name="e_wo_entrp">   -135.30237688 </i>
    <i name="e_0_energy">   -135.30661647 </i>
   </energy>
  </scstep>
  <scstep>
   <time name="dav">    2.70    2.70</time>
   <time name="total">    3.13    3.15</time>
   <energy>
    <i name="alphaZ">    113.16553179 </i>
    <i name="ewald">  56390.51125542 </i>
    <i name="hartreedc"> -86315.28698742 </i>
    <i name="XCdc">    915.94687190 </i>
    <i name="pawpsdc">  33206.97616738 </i>
[...]
   </varray>
  </structure>
  <varray name="forces" >
   <v>       0.00714652       0.00274673       0.00686414 </v>
   <v>      -0.00507226      -0.00781366      -0.00675941 </v>
   <v>       0.01414839      -0.00024022      -0.00963932 </v>
   <v>       0.00252328       0.00135212      -0.00602035 </v>
   <v>      -0.00639195      -0.00916759       0.00754411 </v>
   <v>       0.01784239      -0.00576083       0.00382272 </v>
   <v>       0.00940761      -0.00596081       0.00679143 </v>
   <v>       0.00075892       0.00226001       0.02347273 </v>
   <v>       0.00058186       0.00385341       0.00170274 </v>
   <v>      -0.01064503       0.01643933       0.01213589 </v>
   <v>      -0.00037879       0.00285595      -0.00922025 </v>
   <v>       0.01340971      -0.01114995      -0.01285233 </v>
   <v>      -0.00104056       0.00250129       0.01142287 </v>
   <v>      -0.00262577       0.00245492       0.00075801 </v>
   <v>       0.02116121      -0.01414077       0.00201284 </v>
   <v>       0.00129937      -0.01214029       0.00056510 </v>
   <v>      -0.00871303       0.00901813       0.01917429 </v>
   <v>       0.00247362       0.01104769       0.00127733 </v>
   <v>      -0.00245923      -0.00366785      -0.00557776 </v>
   <v>      -0.00766180       0.02523934       0.00986226 </v>
   <v>       0.00735814       0.00378248       0.00722703 </v>
   <v>      -0.00037384      -0.00443504       0.00272401 </v>
   <v>      -0.00512425       0.01289889       0.01005993 </v>
   <v>       0.00591052      -0.00679444       0.00587255 </v>
   <v>       0.00245300      -0.01545467       0.01301061 </v>
   <v>      -0.00244493      -0.00812802       0.01204630 </v>
   <v>       0.00403671      -0.01297037      -0.00199289 </v>
   <v>      -0.00665138       0.01225158       0.01458334 </v>
   <v>       0.00390492       0.00123281       0.00427471 </v>
   <v>       0.00004583      -0.00025241       0.00532019 </v>
   <v>       0.01890760       0.00393407      -0.00760132 </v>
   <v>      -0.07378680       0.00420816      -0.12286149 </v>
  </varray>
  <varray name="stress" >
   <v>      -0.49732723       0.01135850      -0.02076586 </v>
   <v>       0.01135851      -0.52456360      -0.16822760 </v>
   <v>      -0.02076586      -0.16822758      -0.62447440 </v>
  </varray>
  <energy>
   <i name="e_fr_energy">   -136.03747127 </i>
   <i name="e_wo_entrp">   -136.03031023 </i>
   <i name="e_0_energy">   -136.03389075 </i>
  </energy>
  <time name="totalsc">   43.95   44.16</time>
  <eigenvalues>
   <array>
    <dimension dim="1">band</dimension>
    <dimension dim="2">kpoint</dimension>
    <dimension dim="3">spin</dimension>
    <field>eigene</field>
    <field>occ</field>
    <set>
     <set comment="spin 1">
      <set comment="kpoint 1">
       <r>  -10.9089    1.0000 </r>
       <r>   -9.8281    1.0000 </r>
       <r>   -9.2540    1.0000 </r>
       <r>   -9.1702    1.0000 </r>
       <r>   -8.6500    1.0000 </r>
       <r>   -8.2771    1.0000 </r>
       <r>   -7.8591    1.0000 </r>
       <r>   -7.8262    1.0000 </r>
       <r>   -7.7450    1.0000 </r>
       <r>   -7.7223    1.0000 </r>
       <r>   -7.6770    1.0000 </r>
       <r>   -7.5180    1.0000 </r>
       <r>   -7.5001    1.0000 </r>
       <r>   -7.4343    1.0000 </r>
       <r>   -7.3432    1.0000 </r>
       <r>   -7.2603    1.0000 </r>
       <r>   -7.2333    1.0000 </r>
       <r>   -7.2006    1.0000 </r>
       <r>   -7.1875    1.0000 </r>
       <r>   -7.1051    1.0000 </r>
       <r>   -7.0876    1.0000 </r>
       <r>   -7.0506    1.0000 </r>
       <r>   -6.9808    1.0000 </r>
       <r>   -6.9542    1.0000 </r>
       <r>   -6.8298    1.0000 </r>
       <r>   -6.7288    1.0000 </r>
       <r>   -6.6857    1.0000 </r>
       <r>   -6.5588    1.0000 </r>
       <r>   -6.5340    1.0000 </r>
       <r>   -6.4914    1.0000 </r>
       <r>   -6.4890    1.0000 </r>
       <r>   -6.4309    1.0000 </r>
       <r>   -6.4238    1.0000 </r>
       <r>   -6.4136    1.0000 </r>
       <r>   -6.3066    1.0000 </r>
       <r>   -6.2826    1.0000 </r>
       <r>   -6.2495    1.0000 </r>
       <r>   -6.2100    1.0000 </r>
       <r>   -6.1992    1.0000 </r>
       <r>   -6.1624    1.0000 </r>
       <r>   -6.1530    1.0000 </r>
       <r>   -6.1122    1.0000 </r>
       <r>   -6.0707    1.0000 </r>
       <r>   -6.0032    1.0000 </r>
       <r>   -5.9815    1.0000 </r>
       <r>   -5.9705    1.0000 </r>
       <r>   -5.9525    1.0000 </r>
       <r>   -5.9401    1.0000 </r>
       <r>   -5.9277    1.0000 </r>
       <r>   -5.8983    1.0000 </r>
       <r>   -5.8740    1.0000 </r>
       <r>   -5.8670    1.0000 </r>
       <r>   -5.8082    1.0000 </r>
       <r>   -5.7774    1.0000 </r>
       <r>   -5.7367    1.0000 </r>
       <r>   -5.7171    1.0000 </r>
       <r>   -5.6804    1.0000 </r>
       <r>   -5.6551    1.0000 </r>
       <r>   -5.6365    1.0000 </r>
       <r>   -5.6006    1.0000 </r>
       <r>   -5.5829    1.0000 </r>
       <r>   -5.5451    1.0000 </r>
       <r>   -5.5343    1.0000 </r>
       <r>   -5.5158    1.0000 </r>
       <r>   -5.4880    1.0000 </r>
       <r>   -5.4169    1.0000 </r>
       <r>   -5.3999    1.0000 </r>
       <r>   -5.3563    1.0000 </r>
       <r>   -5.3168    1.0000 </r>
       <r>   -5.2859    1.0000 </r>
       <r>   -5.2381    1.0000 </r>
       <r>   -5.2041    1.0000 </r>
       <r>   -5.1984    1.0000 </r>
       <r>   -5.1788    1.0000 </r>
       <r>   -5.1322    1.0000 </r>
       <r>   -5.1108    1.0000 </r>
       <r>   -5.0803    1.0000 </r>
       <r>   -5.0703    1.0000 </r>
       <r>   -5.0291    1.0000 </r>
       <r>   -5.0006    1.0000 </r>
       <r>   -4.9869    1.0000 </r>
       <r>   -4.9545    1.0000 </r>
       <r>   -4.9271    1.0000 </r>
       <r>   -4.8997    1.0000 </r>
       <r>   -4.8823    1.0000 </r>
       <r>   -4.8548    1.0000 </r>
       <r>   -4.8484    1.0000 </r>
       <r>   -4.8296    1.0000 </r>
       <r>   -4.8188    1.0000 </r>
       <r>   -4.7790    1.0000 </r>
       <r>   -4.7718    1.0000 </r>
       <r>   -4.7322    1.0000 </r>
       <r>   -4.7002    1.0000 </r>
       <r>   -4.6855    1.0000 </r>
       <r>   -4.6358    1.0000 </r>
       <r>   -4.6275    1.0000 </r>
       <r>   -4.6082    1.0000 </r>
       <r>   -4.5834    1.0000 </r>
       <r>   -4.5611    1.0000 </r>
       <r>   -4.5461    1.0000 </r>
       <r>   -4.5264    1.0000 </r>
       <r>   -4.5000    1.0000 </r>
       <r>   -4.4929    1.0000 </r>
       <r>   -4.4687    1.0000 </r>
       <r>   -4.4640    1.0000 </r>
       <r>   -4.4532    1.0000 </r>
       <r>   -4.4120    1.0000 </r>
       <r>   -4.3888    1.0000 </r>
       <r>   -4.3735    1.0000 </r>
       <r>   -4.3570    1.0000 </r>
       <r>   -4.3493    1.0000 </r>
       <r>   -4.3281    1.0000 </r>
       <r>   -4.3204    1.0000 </r>
       <r>   -4.3085    1.0000 </r>
       <r>   -4.2739    1.0000 </r>
       <r>   -4.2624    1.0000 </r>
       <r>   -4.2333    1.0000 </r>
       <r>   -4.2244    1.0000 </r>
       <r>   -4.2120    1.0000 </r>
       <r>   -4.2059    1.0000 </r>
       <r>   -4.1782    1.0000 </r>
       <r>   -4.1762    1.0000 </r>
       <r>   -4.1629    1.0000 </r>
       <r>   -4.1595    1.0000 </r>
       <r>   -4.1495    1.0000 </r>
       <r>   -4.1371    1.0000 </r>
       <r>   -4.1283    1.0000 </r>
       <r>   -4.1205    1.0000 </r>
       <r>   -4.0968    1.0000 </r>
       <r>   -4.0820    1.0000 </r>
       <r>   -4.0764    1.0000 </r>
       <r>   -4.0653    1.0000 </r>
       <r>   -4.0568    1.0000 </r>
       <r>   -4.0482    1.0000 </r>
       <r>   -4.0252    1.0000 </r>
       <r>   -4.0217    1.0000 </r>
       <r>   -4.0150    1.0000 </r>
       <r>   -4.0088    1.0000 </r>
       <r>   -3.9953    1.0000 </r>
       <r>   -3.9828    1.0000 </r>
       <r>   -3.9672    1.0000 </r>
       <r>   -3.9575    1.0000 </r>
       <r>   -3.9499    1.0000 </r>
       <r>   -3.9400    1.0000 </r>
       <r>   -3.9372    1.0000 </r>
       <r>   -3.9306    1.0000 </r>
       <r>   -3.9112    1.0000 </r>
       <r>   -3.9061    1.0000 </r>
       <r>   -3.8898    1.0000 </r>
       <r>   -3.8753    1.0000 </r>
       <r>   -3.8732    1.0000 </r>
       <r>   -3.8435    1.0000 </r>
       <r>   -3.8213    1.0000 </r>
       <r>   -3.8088    1.0000 </r>
       <r>   -3.7921    1.0000 </r>
       <r>   -3.7883    1.0000 </r>
       <r>   -3.7757    1.0000 </r>
       <r>   -3.7746    1.0000 </r>
       <r>   -3.6981    1.0000 </r>
       <r>   -3.6182    1.0000 </r>
       <r>   -3.4448    1.0000 </r>
       <r>   -3.1344    0.0000 </r>
       <r>   -2.9434    0.0000 </r>
       <r>   -2.8680    0.0000 </r>
       <r>   -2.7287    0.0000 </r>
       <r>   -2.6758    0.0000 </r>
       <r>   -2.4569    0.0000 </r>
       <r>   -2.2075    0.0000 </r>
       <r>   -2.1922    0.0000 </r>
       <r>   -2.0071    0.0000 </r>
       <r>   -1.7485    0.0000 </r>
       <r>   -1.4357    0.0000 </r>
       <r>   -1.0866    0.0000 </r>
       <r>   -1.0246    0.0000 </r>
       <r>   -0.9767    0.0000 </r>
       <r>   -0.8370    0.0000 </r>
       <r>   -0.7652    0.0000 </r>
       <r>   -0.6733    0.0000 </r>
       <r>   -0.5829    0.0000 </r>
       <r>   -0.5390    0.0000 </r>
       <r>   -0.4591    0.0000 </r>
       <r>   -0.4288    0.0000 </r>
       <r>   -0.3555    0.0000 </r>
       <r>   -0.2557    0.0000 </r>
       <r>   -0.1481    0.0000 </r>
       <r>    0.4199    0.0000 </r>
       <r>    0.9244    0.0000 </r>
       <r>    0.9891    0.0000 </r>
       <r>    1.0078    0.0000 </r>
       <r>    1.0848    0.0000 </r>
       <r>    1.1626    0.0000 </r>
       <r>    1.2150    0.0000 </r>
       <r>    1.3071    0.0000 </r>
       <r>    1.3830    0.0000 </r>
       <r>    1.4045    0.0000 </r>
       <r>    1.4799    0.0000 </r>
       <r>    1.5146    0.0000 </r>
       <r>    1.5308    0.0000 </r>
      </set>
     </set>
     <set comment="spin 2">
      <set comment="kpoint 1">
       <r>  -10.9242    1.0000 </r>
       <r>   -9.8211    1.0000 </r>
       <r>   -9.2446    1.0000 </r>
       <r>   -9.1537    1.0000 </r>
       <r>   -8.5705    1.0000 </r>
       <r>   -8.1507    1.0000 </r>
       <r>   -7.6749    1.0000 </r>
       <r>   -7.6588    1.0000 </r>
       <r>   -7.5832    1.0000 </r>
       <r>   -7.3799    1.0000 </r>
       <r>   -7.3549    1.0000 </r>
       <r>   -7.1954    1.0000 </r>
       <r>   -7.1004    1.0000 </r>
       <r>   -7.0778    1.0000 </r>
       <r>   -7.0031    1.0000 </r>
       <r>   -6.8772    1.0000 </r>
       <r>   -6.8405    1.0000 </r>
       <r>   -6.7835    1.0000 </r>
       <r>   -6.7620    1.0000 </r>
       <r>   -6.6998    1.0000 </r>
       <r>   -6.6556    1.0000 </r>
       <r>   -6.5935    1.0000 </r>
       <r>   -6.5826    1.0000 </r>
       <r>   -6.5348    1.0000 </r>
       <r>   -6.2781    1.0000 </r>
       <r>   -6.2048    1.0000 </r>
       <r>   -6.1531    1.0000 </r>
       <r>   -6.0115    1.0000 </r>
       <r>   -5.9367    1.0000 </r>
       <r>   -5.9193    1.0000 </r>
       <r>   -5.8898    1.0000 </r>
       <r>   -5.8695    1.0000 </r>
       <r>   -5.8528    1.0000 </r>
       <r>   -5.7761    1.0000 </r>
       <r>   -5.7308    1.0000 </r>
       <r>   -5.7078    1.0000 </r>
       <r>   -5.6743    1.0000 </r>
       <r>   -5.6312    1.0000 </r>
       <r>   -5.6154    1.0000 </r>
       <r>   -5.5593    1.0000 </r>
       <r>   -5.5477    1.0000 </r>
       <r>   -5.5267    1.0000 </r>
       <r>   -5.4622    1.0000 </r>
       <r>   -5.4217    1.0000 </r>
       <r>   -5.4000    1.0000 </r>
       <r>   -5.3628    1.0000 </r>
       <r>   -5.3374    1.0000 </r>
       <r>   -5.3203    1.0000 </r>
       <r>   -5.2804    1.0000 </r>
       <r>   -5.2638    1.0000 </r>
       <r>   -5.2616    1.0000 </r>
       <r>   -5.2409    1.0000 </r>
       <r>   -5.2037    1.0000 </r>
       <r>   -5.1915    1.0000 </r>
       <r>   -5.1350    1.0000 </r>
       <r>   -5.0859    1.0000 </r>
       <r>   -5.0660    1.0000 </r>
       <r>   -5.0379    1.0000 </r>
       <r>   -5.0003    1.0000 </r>
       <r>   -4.9709    1.0000 </r>
       <r>   -4.9614    1.0000 </r>
       <r>   -4.9409    1.0000 </r>
       <r>   -4.8822    1.0000 </r>
       <r>   -4.8591    1.0000 </r>
       <r>   -4.8297    1.0000 </r>
       <r>   -4.8115    1.0000 </r>
       <r>   -4.7586    1.0000 </r>
       <r>   -4.7051    1.0000 </r>
       <r>   -4.6484    1.0000 </r>
       <r>   -4.6238    1.0000 </r>
       <r>   -4.6008    1.0000 </r>
       <r>   -4.5914    1.0000 </r>
       <r>   -4.5708    1.0000 </r>
       <r>   -4.4884    1.0000 </r>
       <r>   -4.4858    1.0000 </r>
       <r>   -4.4466    1.0000 </r>
       <r>   -4.4406    1.0000 </r>
       <r>   -4.3960    1.0000 </r>
       <r>   -4.3704    1.0000 </r>
       <r>   -4.3448    1.0000 </r>
       <r>   -4.3165    1.0000 </r>
       <r>   -4.2933    1.0000 </r>
       <r>   -4.2824    1.0000 </r>
       <r>   -4.2553    1.0000 </r>
       <r>   -4.2214    1.0000 </r>
       <r>   -4.2086    1.0000 </r>
       <r>   -4.1991    1.0000 </r>
       <r>   -4.1686    1.0000 </r>
       <r>   -4.1406    1.0000 </r>
       <r>   -4.1323    1.0000 </r>
       <r>   -4.0994    1.0000 </r>
       <r>   -4.0794    1.0000 </r>
       <r>   -4.0329    1.0000 </r>
       <r>   -4.0126    1.0000 </r>
       <r>   -4.0015    1.0000 </r>
       <r>   -3.9985    1.0000 </r>
       <r>   -3.9655    1.0000 </r>
       <r>   -3.9512    1.0000 </r>
       <r>   -3.9235    1.0000 </r>
       <r>   -3.8964    1.0000 </r>
       <r>   -3.8770    1.0000 </r>
       <r>   -3.8655    1.0000 </r>
       <r>   -3.8454    1.0000 </r>
       <r>   -3.8195    1.0000 </r>
       <r>   -3.8116    1.0000 </r>
       <r>   -3.7975    1.0000 </r>
       <r>   -3.7649    1.0000 </r>
       <r>   -3.7515    1.0000 </r>
       <r>   -3.7269    1.0000 </r>
       <r>   -3.7081    1.0000 </r>
       <r>   -3.7022    1.0000 </r>
       <r>   -3.6821    1.0000 </r>
       <r>   -3.6471    1.0000 </r>
       <r>   -3.6410    1.0000 </r>
       <r>   -3.6220    1.0000 </r>
       <r>   -3.6054    1.0000 </r>
       <r>   -3.5865    1.0000 </r>
       <r>   -3.5699    1.0000 </r>
       <r>   -3.5627    1.0000 </r>
       <r>   -3.5481    1.0000 </r>
       <r>   -3.5311    1.0000 </r>
       <r>   -3.5251    1.0000 </r>
       <r>   -3.4953    1.0000 </r>
       <r>   -3.4804    1.0000 </r>
       <r>   -3.4778    1.0000 </r>
       <r>   -3.4609    1.0000 </r>
       <r>   -3.4558    1.0000 </r>
       <r>   -3.4494    1.0000 </r>
       <r>   -3.4190    1.0000 </r>
       <r>   -3.4134    1.0000 </r>
       <r>   -3.3973    1.0000 </r>
       <r>   -3.3913    1.0000 </r>
       <r>   -3.3711    1.0000 </r>
       <r>   -3.3650    1.0000 </r>
       <r>   -3.3528    1.0000 </r>
       <r>   -3.3460    1.0000 </r>
       <r>   -3.3366    1.0000 </r>
       <r>   -3.3067    1.0000 </r>
       <r>   -3.2995    1.0000 </r>
       <r>   -3.2553    0.9980 </r>
       <r>   -3.2297    0.8577 </r>
       <r>   -3.1970    0.1066 </r>
       <r>   -3.1871    0.0262 </r>
       <r>   -3.1824    0.0114 </r>
       <r>   -3.1631    0.0001 </r>
       <r>   -3.1394    0.0000 </r>
       <r>   -3.1243    0.0000 </r>
       <r>   -3.1183    0.0000 </r>
       <r>   -3.0952    0.0000 </r>
       <r>   -3.0832    0.0000 </r>
       <r>   -3.0705    0.0000 </r>
       <r>   -3.0518    0.0000 </r>
       <r>   -3.0453    0.0000 </r>
       <r>   -3.0401    0.0000 </r>
       <r>   -3.0326    0.0000 </r>
       <r>   -3.0110    0.0000 </r>
       <r>   -2.9889    0.0000 </r>
       <r>   -2.9574    0.0000 </r>
       <r>   -2.9461    0.0000 </r>
       <r>   -2.8733    0.0000 </r>
       <r>   -2.8676    0.0000 </r>
       <r>   -2.6820    0.0000 </r>
       <r>   -2.5795    0.0000 </r>
       <r>   -2.5320    0.0000 </r>
       <r>   -2.3798    0.0000 </r>
       <r>   -2.3332    0.0000 </r>
       <r>   -2.1899    0.0000 </r>
       <r>   -1.9230    0.0000 </r>
       <r>   -1.8894    0.0000 </r>
       <r>   -1.7125    0.0000 </r>
       <r>   -1.4885    0.0000 </r>
       <r>   -1.2463    0.0000 </r>
       <r>   -0.9381    0.0000 </r>
       <r>   -0.8870    0.0000 </r>
       <r>   -0.8156    0.0000 </r>
       <r>   -0.6903    0.0000 </r>
       <r>   -0.5695    0.0000 </r>
       <r>   -0.5131    0.0000 </r>
       <r>   -0.4141    0.0000 </r>
       <r>   -0.3541    0.0000 </r>
       <r>   -0.3053    0.0000 </r>
       <r>   -0.2498    0.0000 </r>
       <r>   -0.1762    0.0000 </r>
       <r>   -0.0666    0.0000 </r>
       <r>    0.0041    0.0000 </r>
       <r>    0.5827    0.0000 </r>
       <r>    1.0259    0.0000 </r>
       <r>    1.0555    0.0000 </r>
       <r>    1.0944    0.0000 </r>
       <r>    1.1604    0.0000 </r>
       <r>    1.2621    0.0000 </r>
       <r>    1.3116    0.0000 </r>
       <r>    1.3891    0.0000 </r>
       <r>    1.4240    0.0000 </r>
       <r>    1.4677    0.0000 </r>
       <r>    1.5238    0.0000 </r>
       <r>    1.5497    0.0000 </r>
       <r>    1.5714    0.0000 </r>
      </set>
     </set>
    </set>
   </array>
  </eigenvalues>
  <separator name="orbital magnetization" >
   <v name="MAGDIPOLOUT">      0.00000000      0.00000000      0.00000000</v>
  </separator>
 </calculation>
 <structure name="finalpos" >
  <crystal>
   <varray name="basis" >
    <v>      16.00000000       0.00000000       0.00000000 </v>
    <v>       0.00000000      16.00000000       0.00000000 </v>
    <v>       0.00000000       0.00000000      16.00000000 </v>
   </varray>
   <i name="volume">   4096.00000000 </i>
   <varray name="rec_basis" >
    <v>       0.06250000       0.00000000       0.00000000 </v>
    <v>       0.00000000       0.06250000       0.00000000 </v>
    <v>       0.00000000       0.00000000       0.06250000 </v>
   </varray>
  </crystal>
  <varray name="positions" >
   <v>       0.25741041       0.47217848       0.38663491 </v>
   <v>       0.47389290       0.46398606       0.68461822 </v>
   <v>       0.56034294       0.68714536       0.40527457 </v>
   <v>       0.56919216       0.26864650       0.38806589 </v>
   <v>       0.33630322       0.46618539       0.63011991 </v>
   <v>       0.65466301       0.62431200       0.49950255 </v>
   <v>       0.65971401       0.32917356       0.49220882 </v>
   <v>       0.33044261       0.59114289       0.35565990 </v>
   <v>       0.33372023       0.35680293       0.35012315 </v>
   <v>       0.39450761       0.47913192       0.26055265 </v>
   <v>       0.53649862       0.26286945       0.53613307 </v>
   <v>       0.52757953       0.68066873       0.55433819 </v>
   <v>       0.65016860       0.55865611       0.36308312 </v>
   <v>       0.65641533       0.40563504       0.36054196 </v>
   <v>       0.41924256       0.59479034       0.61119793 </v>
   <v>       0.42554874       0.34264541       0.60018947 </v>
   <v>       0.47085169       0.60221955       0.32162722 </v>
   <v>       0.47264445       0.35071096       0.31127307 </v>
   <v>       0.42926754       0.30534245       0.44980335 </v>
   <v>       0.42276387       0.63935763       0.46027503 </v>
   <v>       0.31898321       0.54472529       0.50291388 </v>
   <v>       0.32160540       0.39486033       0.49791463 </v>
   <v>       0.53942638       0.47721080       0.30735470 </v>
   <v>       0.57065492       0.54465473       0.60054058 </v>
   <v>       0.57015312       0.39641599       0.59257682 </v>
   <v>       0.65848589       0.47693550       0.49519704 </v>
   <v>       0.44868241       0.47082514       0.53964999 </v>
   <v>       0.53585709       0.55026671       0.44940673 </v>
   <v>       0.53857489       0.39882787       0.44294870 </v>
   <v>       0.41279024       0.47338583       0.39887201 </v>
   <v>       0.55714327       0.63710095       0.64027973 </v>
   <v>       0.44188358       0.69618958       0.60437775 </v>
  </varray>
 </structure>
</modeling>
