unknown system                          
           1
    16.000000    0.000000    0.000000
     0.000000   16.000000    0.000000
     0.000000    0.000000   16.000000
   Ni   H 
    30     2
Direct configuration=     1
   0.24890775  0.46716103  0.38227500
   0.47075300  0.47083604  0.68603282
   0.56509929  0.68487094  0.39107810
   0.57641077  0.26795648  0.38701744
   0.32981921  0.46737207  0.63132709
   0.66122127  0.62931291  0.49810176
   0.66950797  0.32640005  0.49473166
   0.32137815  0.58834201  0.34337587
   0.32816009  0.35080972  0.34190375
   0.38640052  0.47224946  0.25575210
   0.53966186  0.26236736  0.53629913
   0.52796249  0.68491348  0.54009518
   0.65809047  0.55904861  0.36225457
   0.66307143  0.39938929  0.35967929
   0.41791132  0.59768505  0.60327309
   0.42438662  0.34108315  0.60293950
   0.46630145  0.60004593  0.31243553
   0.47350070  0.34857420  0.31006576
   0.42710009  0.30578490  0.44864940
   0.41706815  0.64017942  0.45045461
   0.31397359  0.54403793  0.49810494
   0.31682913  0.39235051  0.49745393
   0.54311139  0.47633634  0.31042064
   0.56802291  0.54975469  0.59622085
   0.57182650  0.39766337  0.59505195
   0.66204844  0.47788122  0.49467593
   0.44739091  0.47007865  0.53756543
   0.53496030  0.55065105  0.44799599
   0.54056338  0.39969673  0.44584246
   0.40978433  0.47146384  0.39774057
   0.54274968  0.64803888  0.67548893
   0.47143722  0.70066411  0.65895224
Direct configuration=     2
   0.25102128  0.46722439  0.38268963
   0.47071400  0.47044731  0.68424681
   0.56422895  0.68296422  0.39246151
   0.57557107  0.26972003  0.38801719
   0.33187319  0.46741479  0.62948498
   0.65937064  0.62786560  0.49726107
   0.66731793  0.32766063  0.49444617
   0.32300720  0.58693159  0.34497615
   0.32969969  0.35226763  0.34356795
   0.38752118  0.47228517  0.25788516
   0.53921936  0.26406272  0.53550347
   0.52715100  0.68401680  0.54308950
   0.65663083  0.55811065  0.36336753
   0.66155833  0.40035935  0.36088520
   0.41945087  0.59913310  0.60404579
   0.42480576  0.34258975  0.60181294
   0.46615182  0.59926493  0.31348986
   0.47326027  0.34921195  0.31113858
   0.42811695  0.30659710  0.44862637
   0.41798216  0.63910652  0.45005331
   0.31500714  0.54344111  0.49773455
   0.31756353  0.39298798  0.49702230
   0.54222778  0.47639264  0.31084482
   0.56779993  0.55128060  0.59800705
   0.57132941  0.39790000  0.59406806
   0.66098331  0.47781668  0.49435925
   0.44610325  0.46940909  0.53947312
   0.53560981  0.55238203  0.44686553
   0.54145737  0.39792874  0.44473661
   0.40916071  0.47155367  0.39603234
   0.54032514  0.64733619  0.67107554
   0.47319059  0.69733646  0.65598718
Direct configuration=     3
   0.25250563  0.46727072  0.38311221
   0.47107555  0.47001112  0.68334358
   0.56330405  0.68220627  0.39372203
   0.57478989  0.27030496  0.38824874
   0.33292393  0.46760193  0.62822757
   0.65768983  0.62663676  0.49681178
   0.66569128  0.32886600  0.49450605
   0.32448474  0.58598043  0.34650890
   0.33109268  0.35314091  0.34509488
   0.38861543  0.47231006  0.25845956
   0.53864826  0.26537241  0.53511236
   0.52643110  0.68345080  0.54641051
   0.65560357  0.55716955  0.36390125
   0.66051415  0.40147063  0.36151033
   0.42079988  0.60024581  0.60498256
   0.42500867  0.34324920  0.60112615
   0.46614049  0.59874425  0.31405767
   0.47310796  0.34963667  0.31166407
   0.42870269  0.30708874  0.44870535
   0.41885465  0.63846426  0.45025268
   0.31621257  0.54337154  0.49771959
   0.31831630  0.39326921  0.49657696
   0.54142909  0.47633722  0.31099139
   0.56760160  0.55228328  0.59950791
   0.57087951  0.39866781  0.59333692
   0.65972291  0.47791934  0.49458907
   0.44651532  0.46986333  0.53822832
   0.53533838  0.55177578  0.44718123
   0.54104516  0.39852804  0.44454081
   0.40966905  0.47168071  0.39699490
   0.53768649  0.64640025  0.66563592
   0.47500962  0.69368145  0.65219425
Direct configuration=     4
   0.25416483  0.46736729  0.38378959
   0.47160372  0.46921315  0.68206019
   0.56159053  0.68156814  0.39602490
   0.57355444  0.27092852  0.38830343
   0.33442645  0.46807959  0.62653693
   0.65518528  0.62513673  0.49658087
   0.66358221  0.33057817  0.49472634
   0.32639283  0.58507270  0.34870061
   0.33294980  0.35394509  0.34719336
   0.39055367  0.47235776  0.25936253
   0.53776128  0.26691003  0.53494387
   0.52596288  0.68338534  0.55138838
   0.65409858  0.55585286  0.36431071
   0.65918459  0.40315099  0.36204091
   0.42193792  0.60038495  0.60666213
   0.42521446  0.34431729  0.60020887
   0.46648535  0.59822407  0.31475317
   0.47312553  0.35004513  0.31200299
   0.42936414  0.30747669  0.44888828
   0.42041333  0.63805861  0.45126199
   0.31787244  0.54382592  0.49825887
   0.31935802  0.39348321  0.49621770
   0.54023577  0.47624456  0.31061760
   0.56766193  0.55254006  0.60133466
   0.57012182  0.40025782  0.59271740
   0.65809436  0.47820605  0.49556972
   0.44730810  0.47113337  0.53778144
   0.53491907  0.55093664  0.44795391
   0.54026307  0.39932573  0.44409001
   0.41087190  0.47181883  0.39758176
   0.53376103  0.64469419  0.65605729
   0.47739107  0.68847997  0.64533514
Direct configuration=     5
   0.25389839  0.46744074  0.38400164
   0.47159115  0.46894401  0.68280846
   0.56116108  0.68225493  0.39675656
   0.57346098  0.27073663  0.38814275
   0.33408110  0.46827983  0.62698084
   0.65515294  0.62553177  0.49706790
   0.66357438  0.33056618  0.49482678
   0.32636965  0.58559910  0.34891267
   0.33270838  0.35354316  0.34705763
   0.39090950  0.47242446  0.25904786
   0.53781827  0.26669153  0.53538878
   0.52700094  0.68417955  0.55044048
   0.65385137  0.55601153  0.36402581
   0.65919260  0.40320404  0.36183352
   0.42026040  0.59820919  0.60678913
   0.42509405  0.34436028  0.60030270
   0.46686505  0.59863223  0.31483292
   0.47337048  0.34965616  0.31152992
   0.42920241  0.30705910  0.44897250
   0.42072170  0.63862143  0.45213497
   0.31786169  0.54432235  0.49860492
   0.31949896  0.39357100  0.49644607
   0.54044004  0.47625725  0.30987873
   0.56856325  0.55069479  0.60051292
   0.57012639  0.40038578  0.59314274
   0.65836099  0.47834408  0.49613400
   0.44754714  0.47153448  0.53824872
   0.53494704  0.55094560  0.44811518
   0.54012311  0.39922965  0.44400430
   0.41120815  0.47175910  0.39757408
   0.53428117  0.64411908  0.65439078
   0.47616765  0.68989045  0.64434926
Direct configuration=     6
   0.25454728  0.46757968  0.38449529
   0.47178896  0.46832332  0.68302687
   0.56017813  0.68265543  0.39834651
   0.57290608  0.27085276  0.38814508
   0.33442933  0.46853735  0.62669582
   0.65421962  0.62519278  0.49721881
   0.66257874  0.33124797  0.49497387
   0.32730230  0.58558982  0.35015159
   0.33333649  0.35371560  0.34786720
   0.39204766  0.47253752  0.25929761
   0.53750880  0.26719427  0.53563036
   0.52693258  0.68402831  0.55262847
   0.65295019  0.55565504  0.36408645
   0.65856330  0.40396566  0.36199243
   0.41998546  0.59733629  0.60748610
   0.42508432  0.34484070  0.59999925
   0.46726924  0.59873406  0.31538653
   0.47349745  0.34954992  0.31137214
   0.42939393  0.30687223  0.44908951
   0.42156238  0.63886754  0.45320762
   0.31849723  0.54476839  0.49892711
   0.32008616  0.39385123  0.49641896
   0.54006474  0.47619063  0.30915647
   0.56912060  0.54983218  0.60056615
   0.56984942  0.40079064  0.59320924
   0.65795884  0.47851529  0.49675407
   0.44798353  0.47203499  0.53821316
   0.53488538  0.55066028  0.44842507
   0.53978261  0.39944573  0.44378337
   0.41185554  0.47177513  0.39776175
   0.53315400  0.64293173  0.64872158
   0.47609015  0.68892698  0.64022108
Direct configuration=     7
   0.25491264  0.46773970  0.38480777
   0.47184374  0.46793615  0.68343714
   0.55976976  0.68324851  0.39931112
   0.57270760  0.27078791  0.38822470
   0.33448378  0.46857573  0.62684579
   0.65402211  0.62525374  0.49732305
   0.66216379  0.33142356  0.49505103
   0.32779746  0.58579913  0.35089099
   0.33352093  0.35381320  0.34813355
   0.39263452  0.47269501  0.25936017
   0.53741196  0.26726409  0.53584922
   0.52688667  0.68369292  0.55281690
   0.65245610  0.55573367  0.36408701
   0.65826528  0.40426429  0.36205190
   0.41970441  0.59690240  0.60770442
   0.42502365  0.34500205  0.59995737
   0.46756378  0.59891938  0.31592991
   0.47354581  0.34940693  0.31125981
   0.42946515  0.30663945  0.44914861
   0.42187109  0.63909795  0.45390318
   0.31865022  0.54497481  0.49902498
   0.32040733  0.39409598  0.49645608
   0.53998132  0.47611271  0.30863509
   0.56949331  0.54909694  0.60027305
   0.56976709  0.40053881  0.59341097
   0.65801470  0.47853065  0.49688947
   0.44811933  0.47199707  0.53829857
   0.53493530  0.55062841  0.44839270
   0.53966507  0.39947952  0.44371094
   0.41212015  0.47175970  0.39773494
   0.53336613  0.64199197  0.64613539
   0.47484023  0.68959706  0.63819968
Direct configuration=     8
   0.25531182  0.46803898  0.38509570
   0.47189604  0.46751852  0.68387029
   0.55955588  0.68427174  0.40026988
   0.57259024  0.27059228  0.38843407
   0.33453350  0.46850348  0.62720836
   0.65418061  0.62541361  0.49738109
   0.66188826  0.33137542  0.49509627
   0.32826765  0.58626946  0.35168227
   0.33361946  0.35396553  0.34828022
   0.39319276  0.47303193  0.25934383
   0.53731622  0.26700272  0.53612226
   0.52666165  0.68322955  0.55206695
   0.65199111  0.55609343  0.36399883
   0.65800065  0.40448061  0.36207301
   0.41969103  0.59695550  0.60793691
   0.42488926  0.34489656  0.60012299
   0.46802148  0.59919221  0.31674552
   0.47356151  0.34923242  0.31121875
   0.42953877  0.30634029  0.44919977
   0.42189521  0.63934096  0.45463492
   0.31870138  0.54503956  0.49918464
   0.32076589  0.39436106  0.49655094
   0.53999295  0.47599669  0.30807222
   0.56968945  0.54831660  0.59989343
   0.56973518  0.39984875  0.59374735
   0.65826395  0.47843987  0.49672052
   0.44818035  0.47177603  0.53843238
   0.53497768  0.55063058  0.44824231
   0.53957682  0.39946912  0.44371753
   0.41236407  0.47170603  0.39769277
   0.53454103  0.64034820  0.64424971
   0.47201856  0.69132175  0.63596985
Direct configuration=     9
   0.25545033  0.46813048  0.38516859
   0.47193304  0.46738653  0.68389504
   0.55944586  0.68447841  0.40057041
   0.57251000  0.27055946  0.38848697
   0.33462161  0.46852717  0.62723211
   0.65411257  0.62537063  0.49739478
   0.66177235  0.33140172  0.49511341
   0.32842090  0.58638087  0.35191163
   0.33370239  0.35402357  0.34838997
   0.39339688  0.47315186  0.25936222
   0.53725032  0.26694313  0.53619454
   0.52660417  0.68321386  0.55229083
   0.65183091  0.55613964  0.36395224
   0.65790928  0.40458819  0.36206850
   0.41974821  0.59694354  0.60813103
   0.42486556  0.34488266  0.60014743
   0.46818110  0.59924727  0.31696604
   0.47358649  0.34920277  0.31121188
   0.42958114  0.30628526  0.44923243
   0.42194293  0.63938487  0.45484336
   0.31879692  0.54508066  0.49933086
   0.32087837  0.39438942  0.49658635
   0.53996200  0.47597294  0.30793026
   0.56972858  0.54812272  0.59986137
   0.56969252  0.39979031  0.59378641
   0.65823333  0.47844111  0.49673424
   0.44823422  0.47183514  0.53850684
   0.53497503  0.55063558  0.44827286
   0.53953647  0.39947657  0.44371454
   0.41247171  0.47169925  0.39771056
   0.53479844  0.63973171  0.64337702
   0.47123680  0.69158214  0.63488080
Direct configuration=    10
   0.25557710  0.46824418  0.38521976
   0.47196536  0.46727025  0.68392038
   0.55942450  0.68472289  0.40078988
   0.57246213  0.27049368  0.38856203
   0.33467723  0.46851766  0.62732719
   0.65415346  0.62536572  0.49741028
   0.66169749  0.33136592  0.49511656
   0.32852651  0.58653512  0.35207717
   0.33374174  0.35408155  0.34844647
   0.39353196  0.47331437  0.25934687
   0.53720436  0.26681246  0.53625859
   0.52656389  0.68321771  0.55222616
   0.65171899  0.55625231  0.36388119
   0.65785568  0.40464812  0.36204504
   0.41988554  0.59705479  0.60833207
   0.42483962  0.34480883  0.60021132
   0.46835278  0.59931275  0.31720148
   0.47360449  0.34917700  0.31122851
   0.42961256  0.30623276  0.44926414
   0.42192195  0.63941755  0.45501891
   0.31885184  0.54507071  0.49948665
   0.32096311  0.39440087  0.49663366
   0.53997007  0.47594455  0.30782724
   0.56972947  0.54796909  0.59980415
   0.56966542  0.39964151  0.59381811
   0.65823764  0.47841451  0.49666955
   0.44825627  0.47183847  0.53857344
   0.53497993  0.55067007  0.44827723
   0.53952986  0.39946941  0.44373860
   0.41253836  0.47169164  0.39774269
   0.53533205  0.63895164  0.64293696
   0.47003906  0.69209136  0.63386325
Direct configuration=    11
   0.25569861  0.46835536  0.38525625
   0.47200338  0.46716915  0.68394470
   0.55943552  0.68489884  0.40096184
   0.57241156  0.27044853  0.38863738
   0.33473436  0.46851127  0.62742393
   0.65417097  0.62535044  0.49741014
   0.66165133  0.33131848  0.49510592
   0.32863284  0.58665119  0.35221067
   0.33377539  0.35413811  0.34848796
   0.39365322  0.47348388  0.25937887
   0.53716385  0.26667870  0.53631193
   0.52656163  0.68325025  0.55220404
   0.65161429  0.55635424  0.36381295
   0.65780925  0.40469935  0.36202455
   0.42005919  0.59718264  0.60856148
   0.42482698  0.34474509  0.60026667
   0.46850847  0.59936940  0.31740599
   0.47361864  0.34916064  0.31122896
   0.42963975  0.30620352  0.44928851
   0.42190956  0.63944550  0.45517229
   0.31890667  0.54505491  0.49965037
   0.32102502  0.39440137  0.49668073
   0.53997794  0.47592218  0.30776910
   0.56973757  0.54784473  0.59975346
   0.56964917  0.39951257  0.59383272
   0.65823728  0.47839671  0.49659901
   0.44826678  0.47184437  0.53863341
   0.53499471  0.55070417  0.44828922
   0.53952075  0.39947162  0.44376325
   0.41257479  0.47169118  0.39775609
   0.53592804  0.63813603  0.64262302
   0.46871295  0.69260500  0.63281009
Direct configuration=    12
   0.25602306  0.46866895  0.38534871
   0.47213639  0.46692323  0.68400775
   0.55955174  0.68520593  0.40131459
   0.57232127  0.27020074  0.38876523
   0.33497455  0.46851774  0.62766288
   0.65420463  0.62531131  0.49741450
   0.66155243  0.33116848  0.49504100
   0.32888269  0.58700747  0.35248702
   0.33385324  0.35430563  0.34859322
   0.39388918  0.47403450  0.25943643
   0.53706711  0.26624925  0.53646754
   0.52666063  0.68341712  0.55233711
   0.65139666  0.55664162  0.36357338
   0.65775008  0.40478142  0.36193758
   0.42070350  0.59756650  0.60930537
   0.42483332  0.34457621  0.60039683
   0.46890814  0.59952625  0.31792178
   0.47363842  0.34921387  0.31134774
   0.42973713  0.30618270  0.44936920
   0.42193248  0.63950572  0.45561384
   0.31907644  0.54501568  0.50014600
   0.32111408  0.39437375  0.49683476
   0.54000734  0.47590066  0.30772569
   0.56981194  0.54752459  0.59960123
   0.56962081  0.39917197  0.59377061
   0.65821232  0.47832880  0.49638528
   0.44822516  0.47188965  0.53877931
   0.53499655  0.55076739  0.44835444
   0.53950328  0.39946465  0.44382487
   0.41263669  0.47172337  0.39792739
   0.53787117  0.63568283  0.64207202
   0.46431799  0.69415148  0.62949224
Direct configuration=    13
   0.25644922  0.46906590  0.38551533
   0.47237576  0.46663951  0.68405519
   0.55979655  0.68548568  0.40155556
   0.57216029  0.26998420  0.38894563
   0.33531246  0.46854303  0.62801350
   0.65423282  0.62528944  0.49749516
   0.66139746  0.33095893  0.49487285
   0.32918293  0.58750390  0.35278865
   0.33396733  0.35455628  0.34877176
   0.39410624  0.47477034  0.25960617
   0.53698154  0.26569185  0.53666113
   0.52692433  0.68353960  0.55274412
   0.65116412  0.55694015  0.36329546
   0.65776071  0.40479150  0.36179109
   0.42154199  0.59789019  0.61033051
   0.42492936  0.34439295  0.60051745
   0.46929681  0.59973562  0.31847049
   0.47366168  0.34934617  0.31151648
   0.42988038  0.30618954  0.44950674
   0.42215386  0.63963366  0.45632317
   0.31933860  0.54503900  0.50071464
   0.32116608  0.39436602  0.49704451
   0.54001766  0.47594143  0.30778721
   0.57011290  0.54678393  0.59917456
   0.56958300  0.39873694  0.59360523
   0.65819677  0.47822216  0.49610328
   0.44814749  0.47193545  0.53898032
   0.53503793  0.55077201  0.44844167
   0.53954309  0.39936977  0.44389394
   0.41261752  0.47178265  0.39812247
   0.54040895  0.63292150  0.64185714
   0.45796458  0.69618014  0.62475412
Direct configuration=    14
   0.25680344  0.46942692  0.38570966
   0.47261980  0.46637562  0.68414982
   0.55994142  0.68579579  0.40189027
   0.57196378  0.26983978  0.38909345
   0.33549646  0.46852531  0.62838413
   0.65428675  0.62528494  0.49757892
   0.66123243  0.33080159  0.49472905
   0.32950378  0.58797387  0.35321513
   0.33406823  0.35474466  0.34896648
   0.39434111  0.47532277  0.25976774
   0.53692180  0.26527396  0.53681392
   0.52701785  0.68341245  0.55308778
   0.65093709  0.55715210  0.36314995
   0.65771403  0.40484070  0.36167913
   0.42200544  0.59785677  0.61102519
   0.42498246  0.34425245  0.60061453
   0.46958576  0.59995475  0.31897947
   0.47369501  0.34939954  0.31156209
   0.42995653  0.30612473  0.44963973
   0.42240137  0.63978111  0.45700126
   0.31955619  0.54513880  0.50108566
   0.32129016  0.39443365  0.49724767
   0.54001569  0.47597596  0.30775844
   0.57045852  0.54592762  0.59868967
   0.56957007  0.39826394  0.59357202
   0.65834809  0.47811468  0.49584729
   0.44815273  0.47192123  0.53908368
   0.53510667  0.55075602  0.44842832
   0.53953153  0.39937065  0.44392665
   0.41267484  0.47181053  0.39823641
   0.54197071  0.63144683  0.64160227
   0.45326064  0.69769971  0.62073975
Direct configuration=    15
   0.25712026  0.46977981  0.38591899
   0.47287369  0.46611139  0.68423103
   0.56005290  0.68616523  0.40228282
   0.57172696  0.26970034  0.38919743
   0.33565347  0.46847173  0.62873345
   0.65435407  0.62528855  0.49769059
   0.66106323  0.33064856  0.49458345
   0.32984220  0.58843291  0.35374506
   0.33413733  0.35489243  0.34917729
   0.39457152  0.47579816  0.25991165
   0.53687304  0.26487458  0.53693446
   0.52704915  0.68317585  0.55340074
   0.65075259  0.55734714  0.36305458
   0.65759581  0.40491049  0.36159998
   0.42223211  0.59759038  0.61152984
   0.42500115  0.34411117  0.60070926
   0.46984729  0.60018862  0.31948131
   0.47372568  0.34941471  0.31156626
   0.43001510  0.30603545  0.44976748
   0.42266463  0.63994430  0.45766897
   0.31975531  0.54525536  0.50139570
   0.32144781  0.39454793  0.49746117
   0.54000390  0.47601005  0.30766856
   0.57081714  0.54514737  0.59824824
   0.56957999  0.39775004  0.59357215
   0.65861002  0.47798648  0.49558382
   0.44815955  0.47186405  0.53920492
   0.53518629  0.55074144  0.44838535
   0.53951052  0.39937013  0.44392128
   0.41276971  0.47182143  0.39833335
   0.54284784  0.63083039  0.64137782
   0.44957015  0.69879296  0.61691851
Direct configuration=    16
   0.25745555  0.47018033  0.38616190
   0.47318702  0.46581045  0.68430842
   0.56016985  0.68657756  0.40279181
   0.57142706  0.26952126  0.38927796
   0.33580542  0.46836196  0.62913195
   0.65442309  0.62527614  0.49784407
   0.66088219  0.33043868  0.49441010
   0.33019796  0.58897622  0.35438467
   0.33420431  0.35507590  0.34945353
   0.39479918  0.47631547  0.26006265
   0.53682471  0.26440846  0.53702757
   0.52711668  0.68287087  0.55370090
   0.65060901  0.55757123  0.36294891
   0.65744632  0.40498159  0.36148479
   0.42234697  0.59721183  0.61196758
   0.42500742  0.34392799  0.60081758
   0.47014078  0.60046749  0.32002408
   0.47374068  0.34943206  0.31156953
   0.43007318  0.30593953  0.44991180
   0.42293035  0.64014018  0.45839469
   0.31995534  0.54537383  0.50173508
   0.32163059  0.39469292  0.49770762
   0.53998502  0.47606475  0.30752703
   0.57115867  0.54453066  0.59794473
   0.56963820  0.39718142  0.59356889
   0.65893570  0.47782156  0.49528705
   0.44823614  0.47175102  0.53932577
   0.53528991  0.55069645  0.44838708
   0.53948618  0.39936486  0.44392038
   0.41288908  0.47182612  0.39843442
   0.54332108  0.63062465  0.64113440
   0.44609679  0.69958604  0.61260858
Direct configuration=    17
   0.25767853  0.47047959  0.38633795
   0.47343186  0.46558634  0.68434581
   0.56025504  0.68684746  0.40319725
   0.57118251  0.26937619  0.38930554
   0.33592773  0.46823804  0.62940716
   0.65447427  0.62523251  0.49798217
   0.66076188  0.33024153  0.49426103
   0.33044395  0.58937413  0.35487161
   0.33423836  0.35522293  0.34968209
   0.39492297  0.47669013  0.26017814
   0.53679332  0.26405433  0.53706087
   0.52723247  0.68269091  0.55378924
   0.65053997  0.55773298  0.36287382
   0.65732262  0.40501993  0.36137469
   0.42233369  0.59693336  0.61216938
   0.42502118  0.34377169  0.60089221
   0.47035641  0.60068390  0.32040561
   0.47372989  0.34946573  0.31158469
   0.43010551  0.30588428  0.45002238
   0.42308056  0.64029386  0.45888185
   0.32008350  0.54542723  0.50199322
   0.32175366  0.39479807  0.49789426
   0.53997195  0.47612435  0.30742281
   0.57135293  0.54427773  0.59793076
   0.56971875  0.39684489  0.59353565
   0.65914775  0.47770290  0.49510094
   0.44834013  0.47162866  0.53943328
   0.53540060  0.55066728  0.44843518
   0.53949257  0.39933605  0.44390720
   0.41298291  0.47185419  0.39850818
   0.54323685  0.63078551  0.64102149
   0.44409612  0.69973277  0.60944908
Direct configuration=    18
   0.25787117  0.47086959  0.38653768
   0.47372914  0.46531484  0.68435567
   0.56036721  0.68708725  0.40373412
   0.57087817  0.26916785  0.38929754
   0.33609107  0.46805331  0.62974290
   0.65453228  0.62512868  0.49816275
   0.66070290  0.32993171  0.49406095
   0.33074889  0.58984498  0.35549322
   0.33428145  0.35546192  0.35000726
   0.39500937  0.47718134  0.26031156
   0.53676895  0.26364943  0.53707932
   0.52747198  0.68252048  0.55376906
   0.65046955  0.55791107  0.36277306
   0.65722705  0.40502665  0.36117418
   0.42228644  0.59663818  0.61234652
   0.42508357  0.34360371  0.60094462
   0.47062248  0.60096431  0.32088707
   0.47368423  0.34956913  0.31164235
   0.43011927  0.30583215  0.45016914
   0.42324665  0.64046189  0.45945740
   0.32023248  0.54544948  0.50234655
   0.32184929  0.39489420  0.49814261
   0.53999139  0.47623421  0.30728461
   0.57153484  0.54411853  0.59807969
   0.56987736  0.39651014  0.59344870
   0.65937132  0.47754411  0.49493495
   0.44851082  0.47146326  0.53956282
   0.53556060  0.55061629  0.44856128
   0.53952104  0.39927802  0.44387080
   0.41311010  0.47194120  0.39864069
   0.54276915  0.63113425  0.64097725
   0.44189020  0.69959727  0.60545920
Direct configuration=    19
   0.25801824  0.47108459  0.38666827
   0.47390416  0.46515719  0.68442260
   0.56046094  0.68722110  0.40393928
   0.57068619  0.26907446  0.38928896
   0.33621690  0.46791819  0.62991340
   0.65462512  0.62501302  0.49828337
   0.66063808  0.32976567  0.49390515
   0.33088435  0.59010720  0.35578828
   0.33427426  0.35560159  0.35018312
   0.39502718  0.47746102  0.26043681
   0.53677279  0.26344173  0.53707414
   0.52771135  0.68244641  0.55363830
   0.65043704  0.55798473  0.36273155
   0.65714679  0.40503020  0.36108222
   0.42230394  0.59646554  0.61235025
   0.42515270  0.34346680  0.60098459
   0.47076599  0.60112034  0.32112601
   0.47364306  0.34966929  0.31168870
   0.43012355  0.30582504  0.45025730
   0.42327983  0.64056850  0.45974251
   0.32030356  0.54542575  0.50254707
   0.32190687  0.39495718  0.49826038
   0.53996990  0.47631786  0.30725668
   0.57160891  0.54414331  0.59828724
   0.57000802  0.39640917  0.59336932
   0.65940231  0.47745014  0.49489736
   0.44863308  0.47137215  0.53963378
   0.53564018  0.55058294  0.44868713
   0.53957997  0.39923093  0.44382674
   0.41319402  0.47203678  0.39871577
   0.54218828  0.63137924  0.64104504
   0.44090283  0.69927139  0.60322417
Direct configuration=    20
   0.25820544  0.47140548  0.38685934
   0.47416832  0.46490063  0.68453134
   0.56065577  0.68738015  0.40416629
   0.57039301  0.26891387  0.38924381
   0.33646852  0.46768879  0.63015598
   0.65484253  0.62480558  0.49845874
   0.66054041  0.32953175  0.49365591
   0.33105880  0.59051811  0.35617615
   0.33421678  0.35576121  0.35040753
   0.39498769  0.47788525  0.26060436
   0.53679420  0.26319594  0.53706598
   0.52814106  0.68228204  0.55336072
   0.65037423  0.55806094  0.36270830
   0.65704916  0.40505230  0.36094424
   0.42242632  0.59620177  0.61233236
   0.42531362  0.34328083  0.60104218
   0.47096494  0.60138881  0.32146787
   0.47355086  0.34984252  0.31175476
   0.43011978  0.30584051  0.45039153
   0.42333885  0.64073045  0.46015733
   0.32042784  0.54537235  0.50285172
   0.32199917  0.39503877  0.49844311
   0.53992938  0.47647374  0.30727400
   0.57173156  0.54422207  0.59866406
   0.57020983  0.39632056  0.59325927
   0.65939286  0.47731917  0.49490340
   0.44884693  0.47118694  0.53975861
   0.53576395  0.55061019  0.44891173
   0.53963358  0.39918635  0.44376379
   0.41333971  0.47222139  0.39888688
   0.54102842  0.63171513  0.64124283
   0.43949691  0.69866587  0.59981140
Direct configuration=    21
   0.25827893  0.47153002  0.38692475
   0.47429072  0.46478689  0.68461436
   0.56079699  0.68739813  0.40419024
   0.57026515  0.26884369  0.38919566
   0.33659599  0.46758160  0.63026181
   0.65499729  0.62470452  0.49851386
   0.66050987  0.32945064  0.49353126
   0.33112795  0.59066463  0.35630619
   0.33419039  0.35583411  0.35049808
   0.39493357  0.47806466  0.26072232
   0.53681327  0.26312873  0.53706495
   0.52838522  0.68221047  0.55322568
   0.65035393  0.55807526  0.36271664
   0.65702360  0.40507027  0.36088862
   0.42257518  0.59609895  0.61234363
   0.42541542  0.34319631  0.60107690
   0.47102252  0.60150518  0.32161581
   0.47347830  0.34994990  0.31179774
   0.43011134  0.30586666  0.45042846
   0.42333562  0.64083139  0.46030486
   0.32049125  0.54534890  0.50297255
   0.32203823  0.39505479  0.49850795
   0.53988987  0.47655335  0.30730851
   0.57179529  0.54428629  0.59886094
   0.57030799  0.39631733  0.59322363
   0.65935212  0.47726517  0.49495088
   0.44895370  0.47109556  0.53981777
   0.53581233  0.55066856  0.44903445
   0.53963806  0.39917241  0.44372091
   0.41338002  0.47232335  0.39894803
   0.54028016  0.63179969  0.64138965
   0.43897014  0.69832203  0.59829839
Direct configuration=    22
   0.25827321  0.47151804  0.38691910
   0.47427916  0.46479659  0.68460597
   0.56077888  0.68740467  0.40419143
   0.57027767  0.26884866  0.38920190
   0.33657907  0.46759063  0.63025316
   0.65497708  0.62471220  0.49850935
   0.66050808  0.32945978  0.49354462
   0.33112433  0.59065104  0.35629699
   0.33419542  0.35582617  0.35049011
   0.39494401  0.47804530  0.26070806
   0.53681112  0.26313032  0.53706636
   0.52835421  0.68221661  0.55324313
   0.65035643  0.55807620  0.36271417
   0.65702317  0.40506887  0.36089485
   0.42254902  0.59611145  0.61234010
   0.42540389  0.34320557  0.60107236
   0.47102066  0.60149345  0.32159850
   0.47348828  0.34993794  0.31179492
   0.43011173  0.30586444  0.45042426
   0.42333660  0.64081460  0.46029101
   0.32047997  0.54535521  0.50296213
   0.32203557  0.39505392  0.49850108
   0.53989436  0.47654329  0.30730320
   0.57178823  0.54427934  0.59884050
   0.57029411  0.39631703  0.59322526
   0.65935447  0.47727145  0.49494164
   0.44894134  0.47110447  0.53981235
   0.53580937  0.55066108  0.44901880
   0.53963839  0.39917351  0.44372519
   0.41337718  0.47231073  0.39893910
   0.54038502  0.63179824  0.64136868
   0.43902037  0.69835865  0.59845726
Direct configuration=    23
   0.25819125  0.47138425  0.38684463
   0.47416174  0.46492296  0.68453640
   0.56065998  0.68733449  0.40413725
   0.57042000  0.26891171  0.38923281
   0.33647430  0.46770309  0.63014449
   0.65479073  0.62478636  0.49842698
   0.66061302  0.32953377  0.49368124
   0.33106354  0.59048355  0.35614230
   0.33420162  0.35572577  0.35037002
   0.39495617  0.47786611  0.26059554
   0.53680691  0.26324734  0.53706610
   0.52811824  0.68228866  0.55335529
   0.65036679  0.55803304  0.36273434
   0.65707509  0.40505089  0.36096638
   0.42246802  0.59624198  0.61232677
   0.42532951  0.34329653  0.60104317
   0.47093976  0.60139305  0.32144071
   0.47353990  0.34985190  0.31175424
   0.43010795  0.30585619  0.45037115
   0.42332660  0.64074044  0.46012583
   0.32045628  0.54536086  0.50282115
   0.32199457  0.39502181  0.49842031
   0.53990987  0.47648284  0.30730072
   0.57171856  0.54423035  0.59867536
   0.57021708  0.39635575  0.59326957
   0.65939176  0.47731980  0.49493743
   0.44885253  0.47118901  0.53976040
   0.53575498  0.55063577  0.44892146
   0.53962009  0.39918756  0.44376796
   0.41333558  0.47223872  0.39886638
   0.54092289  0.63170166  0.64129082
   0.43962512  0.69862323  0.59992833
Direct configuration=    24
   0.25803376  0.47111381  0.38668571
   0.47394682  0.46518718  0.68444551
   0.56039855  0.68714057  0.40403592
   0.57071027  0.26906595  0.38931399
   0.33626147  0.46793001  0.62994567
   0.65439851  0.62490100  0.49826133
   0.66088408  0.32967176  0.49396827
   0.33095939  0.59013226  0.35582896
   0.33417938  0.35549327  0.35009620
   0.39496356  0.47751724  0.26037401
   0.53683373  0.26355326  0.53703704
   0.52771139  0.68246592  0.55356933
   0.65038711  0.55792106  0.36278707
   0.65721065  0.40500101  0.36111591
   0.42230353  0.59645603  0.61226743
   0.42520920  0.34349587  0.60098122
   0.47078343  0.60119057  0.32114895
   0.47363333  0.34971441  0.31170490
   0.43009509  0.30586868  0.45024760
   0.42328739  0.64057053  0.45974427
   0.32042403  0.54536727  0.50254239
   0.32190358  0.39494035  0.49825426
   0.53993604  0.47636837  0.30730966
   0.57156242  0.54418398  0.59841209
   0.57010544  0.39647150  0.59335719
   0.65947013  0.47739114  0.49496225
   0.44868607  0.47136021  0.53965864
   0.53563484  0.55055746  0.44873912
   0.53961345  0.39921688  0.44387560
   0.41327875  0.47210165  0.39870134