       N       E                     dE             d eps       ncg     rms          rms(c)
DAV:   1     0.151196340350E+04    0.15120E+04   -0.88167E+04   792   0.927E+02
DAV:   2    -0.646939926677E+02   -0.15767E+04   -0.15214E+04   840   0.284E+02
DAV:   3    -0.149196266838E+03   -0.84502E+02   -0.80149E+02   856   0.801E+01
DAV:   4    -0.151214864317E+03   -0.20186E+01   -0.19919E+01   848   0.150E+01
DAV:   5    -0.151280161172E+03   -0.65297E-01   -0.65263E-01   944   0.160E+00    0.451E+01
DAV:   6    -0.167641786112E+03   -0.16362E+02   -0.19719E+02   844   0.122E+02    0.906E+01
DAV:   7    -0.152368297598E+03    0.15273E+02   -0.16113E+02   836   0.133E+02    0.560E+01
DAV:   8    -0.148309037251E+03    0.40593E+01   -0.65128E+01   844   0.990E+01    0.668E+01
DAV:   9    -0.143865378397E+03    0.44437E+01   -0.42899E+01   920   0.788E+01    0.635E+01
DAV:  10    -0.140908611907E+03    0.29568E+01   -0.34294E+01   890   0.613E+01    0.569E+01
DAV:  11    -0.147582542739E+03   -0.66739E+01   -0.31815E+01   888   0.714E+01    0.709E+01
DAV:  12    -0.135675631676E+03    0.11907E+02   -0.20053E+01   944   0.478E+01    0.451E+01
DAV:  13    -0.130735876836E+03    0.49398E+01   -0.10950E+01   872   0.398E+01    0.338E+01
DAV:  14    -0.128768434545E+03    0.19674E+01   -0.72781E+00   920   0.274E+01    0.234E+01
DAV:  15    -0.128752175286E+03    0.16259E-01   -0.53110E+00   856   0.235E+01    0.197E+01
DAV:  16    -0.128557537944E+03    0.19464E+00   -0.33723E+00   848   0.193E+01    0.150E+01
DAV:  17    -0.128741030359E+03   -0.18349E+00   -0.31643E+00   840   0.184E+01    0.162E+01
DAV:  18    -0.128544321550E+03    0.19671E+00   -0.13946E+00   834   0.156E+01    0.125E+01
DAV:  19    -0.128771263950E+03   -0.22694E+00   -0.10145E+00   844   0.124E+01    0.113E+01
DAV:  20    -0.129621750113E+03   -0.85049E+00   -0.99304E-01   842   0.120E+01    0.118E+01
DAV:  21    -0.129763709691E+03   -0.14196E+00   -0.71773E-01   828   0.112E+01    0.553E+00
DAV:  22    -0.130711770665E+03   -0.94806E+00   -0.63933E-01   836   0.969E+00    0.931E+00
DAV:  23    -0.131485140092E+03   -0.77337E+00   -0.74981E-01   828   0.874E+00    0.605E+00
DAV:  24    -0.131647696828E+03   -0.16256E+00   -0.30162E-01   856   0.556E+00    0.371E+00
DAV:  25    -0.132288720104E+03   -0.64102E+00   -0.28454E-01   820   0.447E+00    0.512E+00
DAV:  26    -0.132566148241E+03   -0.27743E+00   -0.18932E-01   842   0.449E+00    0.343E+00
DAV:  27    -0.132826856351E+03   -0.26071E+00   -0.12143E-01   840   0.338E+00    0.383E+00
DAV:  28    -0.133225057720E+03   -0.39820E+00   -0.14853E-01   824   0.322E+00    0.235E+00
DAV:  29    -0.133402049181E+03   -0.17699E+00   -0.81716E-02   840   0.303E+00    0.243E+00
DAV:  30    -0.133673692891E+03   -0.27164E+00   -0.96588E-02   840   0.235E+00    0.202E+00
DAV:  31    -0.133753429386E+03   -0.79736E-01   -0.32214E-02   840   0.173E+00    0.166E+00
DAV:  32    -0.133936403423E+03   -0.18297E+00   -0.31870E-02   858   0.145E+00    0.197E+00
DAV:  33    -0.134062498257E+03   -0.12609E+00   -0.20916E-02   864   0.134E+00    0.131E+00
DAV:  34    -0.134303073780E+03   -0.24058E+00   -0.37933E-02   912   0.137E+00    0.164E+00
DAV:  35    -0.134499498078E+03   -0.19642E+00   -0.32561E-02   824   0.151E+00    0.998E-01
DAV:  36    -0.134674843965E+03   -0.17535E+00   -0.31172E-02   904   0.137E+00    0.143E+00
DAV:  37    -0.134800361677E+03   -0.12552E+00   -0.21409E-02   864   0.120E+00    0.750E-01
DAV:  38    -0.134859652603E+03   -0.59291E-01   -0.10312E-02   888   0.907E-01    0.991E-01
DAV:  39    -0.134903395468E+03   -0.43743E-01   -0.83466E-03   880   0.729E-01    0.639E-01
DAV:  40    -0.134923919270E+03   -0.20524E-01   -0.31076E-03   888   0.551E-01    0.471E-01
DAV:  41    -0.134972142339E+03   -0.48223E-01   -0.79482E-03  1048   0.547E-01    0.502E-01
DAV:  42    -0.134986552810E+03   -0.14410E-01   -0.28732E-03   904   0.535E-01    0.266E-01
DAV:  43    -0.135006235792E+03   -0.19683E-01   -0.34470E-03  1020   0.401E-01    0.353E-01
DAV:  44    -0.135014677116E+03   -0.84413E-02   -0.14375E-03   952   0.390E-01    0.142E-01
DAV:  45    -0.135022179195E+03   -0.75021E-02   -0.88242E-04   812   0.234E-01    0.209E-01
DAV:  46    -0.135027046535E+03   -0.48673E-02   -0.69797E-04   840   0.234E-01    0.117E-01
DAV:  47    -0.135030825262E+03   -0.37787E-02   -0.35227E-04   620   0.177E-01    0.154E-01
DAV:  48    -0.135033578530E+03   -0.27533E-02   -0.29450E-04   640   0.162E-01    0.608E-02
DAV:  49    -0.135034808404E+03   -0.12299E-02   -0.11758E-04   516   0.973E-02    0.851E-02
DAV:  50    -0.135036564571E+03   -0.17562E-02   -0.18467E-04   564   0.959E-02    0.321E-02
DAV:  51    -0.135037785590E+03   -0.12210E-02   -0.11006E-04   536   0.604E-02    0.511E-02
DAV:  52    -0.135038291578E+03   -0.50599E-03   -0.60591E-05   520   0.667E-02    0.259E-02
DAV:  53    -0.135039094782E+03   -0.80320E-03   -0.48146E-05   498   0.276E-02    0.209E-02
DAV:  54    -0.135039364408E+03   -0.26963E-03   -0.21398E-05   512   0.360E-02    0.258E-02
DAV:  55    -0.135039707391E+03   -0.34298E-03   -0.25047E-05   484   0.321E-02    0.110E-02
DAV:  56    -0.135039869884E+03   -0.16249E-03   -0.23650E-05   512   0.286E-02    0.261E-02
DAV:  57    -0.135039943186E+03   -0.73303E-04   -0.17859E-05   490   0.322E-02
   1 F= -.13503994E+03 E0= -.13503680E+03  d E =-.135040E+03  mag=    19.9968
       N       E                     dE             d eps       ncg     rms          rms(c)
DAV:   1    -0.135024988275E+03    0.14882E-01   -0.36892E+00   834   0.354E+00    0.782E-01
DAV:   2    -0.135044733931E+03   -0.19746E-01   -0.76035E-02  1116   0.272E+00    0.293E+00
DAV:   3    -0.135020655069E+03    0.24079E-01   -0.41856E-02   852   0.287E+00    0.110E+00
DAV:   4    -0.135034810350E+03   -0.14155E-01   -0.38460E-02  1060   0.217E+00    0.253E+00
DAV:   5    -0.135024314228E+03    0.10496E-01   -0.32032E-02   930   0.203E+00    0.147E+00
DAV:   6    -0.135020470879E+03    0.38433E-02   -0.10105E-02   884   0.157E+00    0.654E-01
DAV:   7    -0.135023991389E+03   -0.35205E-02   -0.11024E-02  1052   0.123E+00    0.128E+00
DAV:   8    -0.135021280037E+03    0.27114E-02   -0.10853E-02   890   0.107E+00    0.845E-01
DAV:   9    -0.135020302133E+03    0.97790E-03   -0.38396E-03   868   0.644E-01    0.283E-01
DAV:  10    -0.135020660978E+03   -0.35884E-03   -0.80738E-04   824   0.316E-01    0.243E-01
DAV:  11    -0.135020717202E+03   -0.56224E-04   -0.45510E-04   560   0.266E-01
   2 F= -.13502072E+03 E0= -.13501744E+03  d E =0.192260E-01  mag=    19.9992
       N       E                     dE             d eps       ncg     rms          rms(c)
DAV:   1    -0.135063990294E+03   -0.43329E-01   -0.81068E-01   828   0.126E+00    0.422E-01
DAV:   2    -0.135070081623E+03   -0.60913E-02   -0.32093E-02  1138   0.133E+00    0.193E+00
DAV:   3    -0.135061200504E+03    0.88811E-02   -0.18974E-02   892   0.139E+00    0.568E-01
DAV:   4    -0.135065623242E+03   -0.44227E-02   -0.84511E-03  1012   0.116E+00    0.117E+00
DAV:   5    -0.135063842352E+03    0.17809E-02   -0.78577E-03   986   0.113E+00    0.101E+00
DAV:   6    -0.135061919069E+03    0.19233E-02   -0.37552E-03   946   0.898E-01    0.433E-01
DAV:   7    -0.135062566141E+03   -0.64707E-03   -0.24948E-03   986   0.574E-01    0.573E-01
DAV:   8    -0.135062163908E+03    0.40223E-03   -0.23812E-03   842   0.465E-01    0.366E-01
DAV:   9    -0.135061985140E+03    0.17877E-03   -0.67816E-04   688   0.323E-01    0.126E-01
DAV:  10    -0.135062034115E+03   -0.48976E-04   -0.12359E-04   504   0.135E-01
   3 F= -.13506203E+03 E0= -.13505875E+03  d E =-.413169E-01  mag=    19.9998
       N       E                     dE             d eps       ncg     rms          rms(c)
DAV:   1    -0.135066303194E+03   -0.43181E-02   -0.80024E-01   792   0.197E+00    0.290E-01
DAV:   2    -0.135076438558E+03   -0.10135E-01   -0.18757E-02  1112   0.168E+00    0.200E+00
DAV:   3    -0.135065635169E+03    0.10803E-01   -0.14230E-02   858   0.164E+00    0.574E-01
DAV:   4    -0.135067585527E+03   -0.19504E-02   -0.45254E-03  1052   0.745E-01    0.541E-01
DAV:   5    -0.135067433837E+03    0.15169E-03   -0.18755E-03   874   0.520E-01    0.355E-01
DAV:   6    -0.135067186275E+03    0.24756E-03   -0.74950E-04   834   0.365E-01    0.148E-01
DAV:   7    -0.135067287889E+03   -0.10161E-03   -0.41723E-04   484   0.225E-01    0.212E-01
DAV:   8    -0.135067377331E+03   -0.89441E-04   -0.61423E-04   514   0.251E-01
   4 F= -.13506738E+03 E0= -.13506397E+03  d E =-.534322E-02  mag=    19.9999
       N       E                     dE             d eps       ncg     rms          rms(c)
DAV:   1    -0.135071970245E+03   -0.46824E-02   -0.43529E+00   798   0.457E+00    0.628E-01
DAV:   2    -0.135109968648E+03   -0.37998E-01   -0.82645E-02  1044   0.326E+00    0.385E+00
DAV:   3    -0.135072206798E+03    0.37762E-01   -0.57562E-02   860   0.330E+00    0.982E-01
DAV:   4    -0.135081351592E+03   -0.91448E-02   -0.19626E-02  1004   0.165E+00    0.152E+00
DAV:   5    -0.135078321877E+03    0.30297E-02   -0.14979E-02   892   0.130E+00    0.104E+00
DAV:   6    -0.135076461656E+03    0.18602E-02   -0.61259E-03   836   0.816E-01    0.318E-01
DAV:   7    -0.135077221824E+03   -0.76017E-03   -0.21011E-03   930   0.512E-01    0.465E-01
DAV:   8    -0.135077525406E+03   -0.30358E-03   -0.25366E-03   874   0.547E-01    0.600E-01
DAV:   9    -0.135076889140E+03    0.63627E-03   -0.22440E-03   842   0.482E-01    0.342E-01
DAV:  10    -0.135077082520E+03   -0.19338E-03   -0.81055E-04   780   0.384E-01    0.361E-01
DAV:  11    -0.135076925152E+03    0.15737E-03   -0.60622E-04   674   0.328E-01    0.217E-01
DAV:  12    -0.135076900006E+03    0.25146E-04   -0.23682E-04   498   0.222E-01
   5 F= -.13507690E+03 E0= -.13507333E+03  d E =-.952268E-02  mag=    20.0000
       N       E                     dE             d eps       ncg     rms          rms(c)
DAV:   1    -0.135080361155E+03   -0.34360E-02   -0.89313E-01   792   0.205E+00    0.339E-01
DAV:   2    -0.135097584630E+03   -0.17223E-01   -0.24236E-02  1082   0.212E+00    0.271E+00
DAV:   3    -0.135078927383E+03    0.18657E-01   -0.18447E-02   868   0.206E+00    0.662E-01
DAV:   4    -0.135081452824E+03   -0.25254E-02   -0.53735E-03  1028   0.820E-01    0.517E-01
DAV:   5    -0.135081860359E+03   -0.40753E-03   -0.27654E-03   898   0.591E-01    0.553E-01
DAV:   6    -0.135081154937E+03    0.70542E-03   -0.15948E-03   826   0.467E-01    0.199E-01
DAV:   7    -0.135081312415E+03   -0.15748E-03   -0.58516E-04   500   0.240E-01    0.208E-01
DAV:   8    -0.135081459097E+03   -0.14668E-03   -0.47292E-04   552   0.270E-01    0.271E-01
DAV:   9    -0.135081344338E+03    0.11476E-03   -0.35674E-04   498   0.247E-01    0.155E-01
DAV:  10    -0.135081364504E+03   -0.20166E-04   -0.17819E-04   480   0.167E-01
   6 F= -.13508136E+03 E0= -.13507771E+03  d E =-.446450E-02  mag=    20.0000
       N       E                     dE             d eps       ncg     rms          rms(c)
DAV:   1    -0.135085555473E+03   -0.42111E-02   -0.11555E+00   792   0.227E+00    0.317E-01
DAV:   2    -0.135094344839E+03   -0.87894E-02   -0.19055E-02  1132   0.156E+00    0.187E+00
DAV:   3    -0.135085684843E+03    0.86600E-02   -0.15162E-02   852   0.158E+00    0.615E-01
DAV:   4    -0.135087483631E+03   -0.17988E-02   -0.60696E-03   988   0.850E-01    0.714E-01
DAV:   5    -0.135087228948E+03    0.25468E-03   -0.34132E-03   868   0.691E-01    0.551E-01
DAV:   6    -0.135086646766E+03    0.58218E-03   -0.17876E-03   834   0.514E-01    0.247E-01
DAV:   7    -0.135086747207E+03   -0.10044E-03   -0.86506E-04   640   0.303E-01    0.253E-01
DAV:   8    -0.135086999872E+03   -0.25267E-03   -0.83259E-04   738   0.354E-01    0.383E-01
DAV:   9    -0.135086717950E+03    0.28192E-03   -0.53905E-04   626   0.320E-01    0.184E-01
DAV:  10    -0.135086717204E+03    0.74582E-06   -0.18635E-04   496   0.182E-01
   7 F= -.13508672E+03 E0= -.13508296E+03  d E =-.535270E-02  mag=    20.0000
       N       E                     dE             d eps       ncg     rms          rms(c)
DAV:   1    -0.135091621428E+03   -0.49035E-02   -0.28878E+00   792   0.358E+00    0.534E-01
DAV:   2    -0.135129668682E+03   -0.38047E-01   -0.72510E-02  1122   0.299E+00    0.424E+00
DAV:   3    -0.135087633498E+03    0.42035E-01   -0.58564E-02   868   0.297E+00    0.850E-01
DAV:   4    -0.135096606664E+03   -0.89732E-02   -0.14911E-02  1004   0.140E+00    0.112E+00
DAV:   5    -0.135095361768E+03    0.12449E-02   -0.98195E-03   852   0.106E+00    0.832E-01
DAV:   6    -0.135094208976E+03    0.11528E-02   -0.47755E-03   850   0.734E-01    0.387E-01
DAV:   7    -0.135094602925E+03   -0.39395E-03   -0.21241E-03   874   0.505E-01    0.432E-01
DAV:   8    -0.135094969223E+03   -0.36630E-03   -0.18548E-03   874   0.544E-01    0.530E-01
DAV:   9    -0.135094433394E+03    0.53583E-03   -0.15061E-03   844   0.491E-01    0.303E-01
DAV:  10    -0.135094403274E+03    0.30120E-04   -0.58752E-04   604   0.297E-01
   8 F= -.13509440E+03 E0= -.13509052E+03  d E =-.768607E-02  mag=    20.0000
       N       E                     dE             d eps       ncg     rms          rms(c)
DAV:   1    -0.135098444994E+03   -0.40116E-02   -0.11361E+00   798   0.220E+00    0.404E-01
DAV:   2    -0.135130031609E+03   -0.31587E-01   -0.44606E-02  1098   0.265E+00    0.396E+00
DAV:   3    -0.135093091729E+03    0.36940E-01   -0.43131E-02   892   0.260E+00    0.643E-01
DAV:   4    -0.135099577469E+03   -0.64857E-02   -0.66762E-03  1052   0.939E-01    0.569E-01
DAV:   5    -0.135100247439E+03   -0.66997E-03   -0.36760E-03   882   0.713E-01    0.637E-01
DAV:   6    -0.135099406585E+03    0.84085E-03   -0.22673E-03   850   0.595E-01    0.350E-01
DAV:   7    -0.135099357268E+03    0.49317E-04   -0.10913E-03   742   0.359E-01    0.218E-01
DAV:   8    -0.135099700698E+03   -0.34343E-03   -0.98654E-04   764   0.364E-01    0.368E-01
DAV:   9    -0.135099386718E+03    0.31398E-03   -0.82575E-04   692   0.342E-01    0.218E-01
DAV:  10    -0.135099381595E+03    0.51228E-05   -0.27365E-04   474   0.186E-01
   9 F= -.13509938E+03 E0= -.13509538E+03  d E =-.497832E-02  mag=    20.0000
       N       E                     dE             d eps       ncg     rms          rms(c)
DAV:   1    -0.135102597382E+03   -0.32107E-02   -0.57915E-01   798   0.155E+00    0.329E-01
DAV:   2    -0.135125820844E+03   -0.23223E-01   -0.36242E-02   930   0.227E+00    0.343E+00
DAV:   3    -0.135098516374E+03    0.27304E-01   -0.33571E-02   876   0.220E+00    0.513E-01
DAV:   4    -0.135102978592E+03   -0.44622E-02   -0.38879E-03  1052   0.689E-01    0.437E-01
DAV:   5    -0.135103589868E+03   -0.61128E-03   -0.31285E-03   860   0.543E-01    0.559E-01
DAV:   6    -0.135102914304E+03    0.67556E-03   -0.19124E-03   836   0.474E-01    0.238E-01
DAV:   7    -0.135103016382E+03   -0.10208E-03   -0.54708E-04   522   0.268E-01    0.195E-01
DAV:   8    -0.135103148344E+03   -0.13196E-03   -0.52182E-04   564   0.276E-01    0.265E-01
DAV:   9    -0.135103026724E+03    0.12162E-03   -0.43737E-04   516   0.247E-01    0.144E-01
DAV:  10    -0.135103006317E+03    0.20407E-04   -0.13025E-04   458   0.153E-01
  10 F= -.13510301E+03 E0= -.13509895E+03  d E =-.362472E-02  mag=    20.0000
       N       E                     dE             d eps       ncg     rms          rms(c)
DAV:   1    -0.135105401947E+03   -0.23752E-02   -0.24374E-01   798   0.986E-01    0.203E-01
DAV:   2    -0.135114083774E+03   -0.86818E-02   -0.12620E-02   978   0.139E+00    0.207E+00
DAV:   3    -0.135103286958E+03    0.10797E-01   -0.98089E-03   900   0.135E+00    0.314E-01
DAV:   4    -0.135105504595E+03   -0.22176E-02   -0.12373E-03   874   0.460E-01    0.216E-01
DAV:   5    -0.135105741359E+03   -0.23676E-03   -0.87991E-04   802   0.306E-01    0.302E-01
DAV:   6    -0.135105544567E+03    0.19679E-03   -0.68027E-04   492   0.272E-01    0.170E-01
DAV:   7    -0.135105563441E+03   -0.18875E-04   -0.25196E-04   468   0.183E-01
  11 F= -.13510556E+03 E0= -.13510149E+03  d E =-.255712E-02  mag=    20.0000
       N       E                     dE             d eps       ncg     rms          rms(c)
DAV:   1    -0.135108415387E+03   -0.28708E-02   -0.32886E-01   798   0.113E+00    0.236E-01
DAV:   2    -0.135116968988E+03   -0.85536E-02   -0.14081E-02  1010   0.149E+00    0.195E+00
DAV:   3    -0.135107525688E+03    0.94433E-02   -0.13092E-02   884   0.142E+00    0.514E-01
DAV:   4    -0.135108596702E+03   -0.10710E-02   -0.23220E-03   932   0.583E-01    0.278E-01
DAV:   5    -0.135108945200E+03   -0.34850E-03   -0.14798E-03   850   0.418E-01    0.396E-01
DAV:   6    -0.135108557357E+03    0.38784E-03   -0.10778E-03   788   0.374E-01    0.189E-01
DAV:   7    -0.135108608957E+03   -0.51600E-04   -0.40866E-04   482   0.230E-01
  12 F= -.13510861E+03 E0= -.13510457E+03  d E =-.304552E-02  mag=    20.0000
       N       E                     dE             d eps       ncg     rms          rms(c)
DAV:   1    -0.135114943422E+03   -0.63861E-02   -0.23527E+00   792   0.302E+00    0.614E-01
DAV:   2    -0.135183528875E+03   -0.68585E-01   -0.11524E-01  1002   0.397E+00    0.592E+00
DAV:   3    -0.135105268963E+03    0.78260E-01   -0.11274E-01   884   0.381E+00    0.104E+00
DAV:   4    -0.135116661965E+03   -0.11393E-01   -0.15203E-02  1042   0.142E+00    0.851E-01
DAV:   5    -0.135119334817E+03   -0.26729E-02   -0.14953E-02   940   0.115E+00    0.125E+00
DAV:   6    -0.135115942081E+03    0.33927E-02   -0.88595E-03   866   0.102E+00    0.539E-01
DAV:   7    -0.135116321285E+03   -0.37920E-03   -0.24340E-03   932   0.624E-01    0.396E-01
DAV:   8    -0.135117103622E+03   -0.78234E-03   -0.22222E-03   930   0.622E-01    0.623E-01
DAV:   9    -0.135116282968E+03    0.82065E-03   -0.19920E-03   860   0.561E-01    0.315E-01
DAV:  10    -0.135116201752E+03    0.81217E-04   -0.61114E-04   620   0.302E-01
  13 F= -.13511620E+03 E0= -.13511217E+03  d E =-.759279E-02  mag=    20.0000
       N       E                     dE             d eps       ncg     rms          rms(c)
DAV:   1    -0.135122475128E+03   -0.61922E-02   -0.28226E+00   792   0.328E+00    0.535E-01
DAV:   2    -0.135159266539E+03   -0.36791E-01   -0.73311E-02  1170   0.284E+00    0.425E+00
DAV:   3    -0.135116431685E+03    0.42835E-01   -0.70691E-02   868   0.286E+00    0.709E-01
DAV:   4    -0.135127141610E+03   -0.10710E-01   -0.13586E-02  1042   0.135E+00    0.121E+00
DAV:   5    -0.135125176976E+03    0.19646E-02   -0.75597E-03   852   0.109E+00    0.740E-01
DAV:   6    -0.135124586737E+03    0.59024E-03   -0.48113E-03   844   0.796E-01    0.538E-01
DAV:   7    -0.135124833779E+03   -0.24704E-03   -0.34133E-03   892   0.645E-01    0.499E-01
DAV:   8    -0.135125252642E+03   -0.41886E-03   -0.31186E-03   890   0.614E-01    0.648E-01
DAV:   9    -0.135124270844E+03    0.98180E-03   -0.20159E-03   842   0.515E-01    0.230E-01
DAV:  10    -0.135124459549E+03   -0.18871E-03   -0.40936E-04   570   0.254E-01    0.218E-01
DAV:  11    -0.135124445366E+03    0.14182E-04   -0.27277E-04   504   0.202E-01
  14 F= -.13512445E+03 E0= -.13512043E+03  d E =-.824361E-02  mag=    20.0000
       N       E                     dE             d eps       ncg     rms          rms(c)
DAV:   1    -0.135126787471E+03   -0.23279E-02   -0.27824E-01   804   0.105E+00    0.192E-01
DAV:   2    -0.135133293038E+03   -0.65056E-02   -0.11449E-02  1018   0.120E+00    0.178E+00
DAV:   3    -0.135125461451E+03    0.78316E-02   -0.95346E-03   884   0.115E+00    0.278E-01
DAV:   4    -0.135127093481E+03   -0.16320E-02   -0.12755E-03   906   0.468E-01    0.291E-01
DAV:   5    -0.135127248205E+03   -0.15472E-03   -0.97653E-04   820   0.357E-01    0.338E-01
DAV:   6    -0.135126996650E+03    0.25155E-03   -0.67203E-04   612   0.305E-01    0.149E-01
DAV:   7    -0.135127061324E+03   -0.64674E-04   -0.25004E-04   480   0.193E-01
  15 F= -.13512706E+03 E0= -.13512308E+03  d E =-.261596E-02  mag=    20.0000
       N       E                     dE             d eps       ncg     rms          rms(c)
DAV:   1    -0.135130665576E+03   -0.36689E-02   -0.65343E-01   798   0.158E+00    0.355E-01
DAV:   2    -0.135154328022E+03   -0.23662E-01   -0.48053E-02  1002   0.233E+00    0.336E+00
DAV:   3    -0.135126029411E+03    0.28299E-01   -0.34390E-02   900   0.225E+00    0.647E-01
DAV:   4    -0.135130947878E+03   -0.49185E-02   -0.43754E-03  1012   0.806E-01    0.422E-01
DAV:   5    -0.135131784766E+03   -0.83689E-03   -0.26270E-03   962   0.611E-01    0.623E-01
DAV:   6    -0.135130881252E+03    0.90351E-03   -0.16923E-03   860   0.536E-01    0.237E-01
DAV:   7    -0.135131047610E+03   -0.16636E-03   -0.69407E-04   728   0.344E-01    0.249E-01
DAV:   8    -0.135131288416E+03   -0.24081E-03   -0.95141E-04   692   0.354E-01    0.403E-01
DAV:   9    -0.135130941113E+03    0.34730E-03   -0.59289E-04   556   0.320E-01    0.159E-01
DAV:  10    -0.135130978367E+03   -0.37255E-04   -0.13241E-04   466   0.167E-01
  16 F= -.13513098E+03 E0= -.13512701E+03  d E =-.391704E-02  mag=    20.0000
       N       E                     dE             d eps       ncg     rms          rms(c)
DAV:   1    -0.135138395066E+03   -0.74540E-02   -0.75258E+00   792   0.531E+00    0.819E-01
DAV:   2    -0.135209623678E+03   -0.71229E-01   -0.15058E-01  1146   0.395E+00    0.589E+00
DAV:   3    -0.135130100457E+03    0.79523E-01   -0.11448E-01   898   0.398E+00    0.928E-01
DAV:   4    -0.135152729108E+03   -0.22629E-01   -0.26679E-02   978   0.216E+00    0.200E+00
DAV:   5    -0.135144280482E+03    0.84486E-02   -0.16572E-02   860   0.181E+00    0.102E+00
DAV:   6    -0.135143728418E+03    0.55206E-03   -0.10255E-02   878   0.115E+00    0.689E-01
DAV:   7    -0.135146926314E+03   -0.31979E-02   -0.12034E-02   970   0.112E+00    0.129E+00
DAV:   8    -0.135144532341E+03    0.23940E-02   -0.92112E-03   892   0.110E+00    0.905E-01
DAV:   9    -0.135143301869E+03    0.12305E-02   -0.38106E-03   892   0.721E-01    0.369E-01
DAV:  10    -0.135143643598E+03   -0.34173E-03   -0.12987E-03   866   0.396E-01    0.391E-01
DAV:  11    -0.135143565967E+03    0.77630E-04   -0.83914E-04   700   0.350E-01
  17 F= -.13514357E+03 E0= -.13513972E+03  d E =-.125876E-01  mag=    20.0000
       N       E                     dE             d eps       ncg     rms          rms(c)
DAV:   1    -0.135141009480E+03    0.26341E-02   -0.29973E-01   792   0.110E+00    0.209E-01
DAV:   2    -0.135149522665E+03   -0.85132E-02   -0.11952E-02  1026   0.137E+00    0.206E+00
DAV:   3    -0.135139480163E+03    0.10043E-01   -0.12573E-02   916   0.133E+00    0.328E-01
DAV:   4    -0.135141395216E+03   -0.19151E-02   -0.19274E-03   916   0.483E-01    0.331E-01
DAV:   5    -0.135141574868E+03   -0.17965E-03   -0.14020E-03   856   0.399E-01    0.374E-01
DAV:   6    -0.135141328443E+03    0.24643E-03   -0.80705E-04   706   0.331E-01    0.205E-01
DAV:   7    -0.135141327384E+03    0.10591E-05   -0.27115E-04   514   0.205E-01
  18 F= -.13514133E+03 E0= -.13513745E+03  d E =0.223858E-02  mag=    20.0000
       N       E                     dE             d eps       ncg     rms          rms(c)
DAV:   1    -0.135143646306E+03   -0.23179E-02   -0.28002E-01   810   0.105E+00    0.250E-01
DAV:   2    -0.135156212238E+03   -0.12566E-01   -0.17803E-02   948   0.177E+00    0.242E+00
DAV:   3    -0.135141755593E+03    0.14457E-01   -0.18275E-02   900   0.169E+00    0.540E-01
DAV:   4    -0.135143749331E+03   -0.19937E-02   -0.26378E-03   940   0.555E-01    0.291E-01
DAV:   5    -0.135143967843E+03   -0.21851E-03   -0.12745E-03   874   0.375E-01    0.318E-01
DAV:   6    -0.135143806481E+03    0.16136E-03   -0.68638E-04   688   0.304E-01    0.186E-01
DAV:   7    -0.135143783243E+03    0.23238E-04   -0.21092E-04   482   0.207E-01
  19 F= -.13514378E+03 E0= -.13513997E+03  d E =-.245586E-02  mag=    20.0000
       N       E                     dE             d eps       ncg     rms          rms(c)
DAV:   1    -0.135144749718E+03   -0.94324E-03   -0.41647E-02   816   0.434E-01    0.193E-01
DAV:   2    -0.135155420019E+03   -0.10670E-01   -0.13045E-02   890   0.153E+00    0.231E+00
DAV:   3    -0.135142164816E+03    0.13255E-01   -0.10577E-02   884   0.145E+00    0.300E-01
DAV:   4    -0.135144555909E+03   -0.23911E-02   -0.74448E-04   770   0.364E-01    0.135E-01
DAV:   5    -0.135144817319E+03   -0.26141E-03   -0.42692E-04   568   0.237E-01    0.228E-01
DAV:   6    -0.135144749034E+03    0.68285E-04   -0.44032E-04   482   0.216E-01
  20 F= -.13514475E+03 E0= -.13514091E+03  d E =-.965791E-03  mag=    20.0000
       N       E                     dE             d eps       ncg     rms          rms(c)
DAV:   1    -0.135146573908E+03   -0.17566E-02   -0.18323E-01   804   0.838E-01    0.166E-01
DAV:   2    -0.135150576098E+03   -0.40022E-02   -0.58760E-03  1090   0.952E-01    0.140E+00
DAV:   3    -0.135145761707E+03    0.48144E-02   -0.47852E-03   884   0.924E-01    0.215E-01
DAV:   4    -0.135146874599E+03   -0.11129E-02   -0.11567E-03   876   0.395E-01    0.369E-01
DAV:   5    -0.135146773937E+03    0.10066E-03   -0.10793E-03   740   0.339E-01    0.280E-01
DAV:   6    -0.135146677803E+03    0.96134E-04   -0.57393E-04   522   0.284E-01
  21 F= -.13514668E+03 E0= -.13514284E+03  d E =-.192877E-02  mag=    20.0000
       N       E                     dE             d eps       ncg     rms          rms(c)
DAV:   1    -0.135147409398E+03   -0.63546E-03   -0.24347E-02   810   0.359E-01    0.176E-01
DAV:   2    -0.135156518150E+03   -0.91088E-02   -0.12200E-02   882   0.140E+00    0.219E+00
DAV:   3    -0.135145471419E+03    0.11047E-01   -0.12467E-02   876   0.132E+00    0.292E-01
DAV:   4    -0.135147296416E+03   -0.18250E-02   -0.60500E-04   698   0.319E-01    0.155E-01
DAV:   5    -0.135147446919E+03   -0.15050E-03   -0.35572E-04   544   0.226E-01    0.191E-01
DAV:   6    -0.135147422740E+03    0.24179E-04   -0.31885E-04   482   0.199E-01
  22 F= -.13514742E+03 E0= -.13514362E+03  d E =-.744937E-03  mag=    20.0000
       N       E                     dE             d eps       ncg     rms          rms(c)
DAV:   1    -0.135152145261E+03   -0.46983E-02   -0.15947E+00   792   0.242E+00    0.430E-01
DAV:   2    -0.135177677172E+03   -0.25532E-01   -0.49224E-02  1098   0.236E+00    0.355E+00
DAV:   3    -0.135147456396E+03    0.30221E-01   -0.36506E-02   876   0.232E+00    0.512E-01
DAV:   4    -0.135154706100E+03   -0.72497E-02   -0.71499E-03   978   0.109E+00    0.905E-01
DAV:   5    -0.135153710263E+03    0.99584E-03   -0.51396E-03   852   0.877E-01    0.711E-01
DAV:   6    -0.135152878971E+03    0.83129E-03   -0.26711E-03   844   0.635E-01    0.284E-01
DAV:   7    -0.135154036851E+03   -0.11579E-02   -0.31420E-03   868   0.562E-01    0.733E-01
DAV:   8    -0.135153023049E+03    0.10138E-02   -0.30841E-03   836   0.544E-01    0.373E-01
DAV:   9    -0.135153014615E+03    0.84339E-05   -0.56867E-04   690   0.358E-01
  23 F= -.13515301E+03 E0= -.13514928E+03  d E =-.559188E-02  mag=    20.0000
       N       E                     dE             d eps       ncg     rms          rms(c)
DAV:   1    -0.135158588540E+03   -0.55655E-02   -0.29087E+00   792   0.325E+00    0.529E-01
DAV:   2    -0.135188716910E+03   -0.30128E-01   -0.74247E-02  1146   0.260E+00    0.381E+00
DAV:   3    -0.135154420211E+03    0.34297E-01   -0.54785E-02   868   0.261E+00    0.678E-01
DAV:   4    -0.135163405076E+03   -0.89849E-02   -0.10393E-02   954   0.143E+00    0.112E+00
DAV:   5    -0.135161330599E+03    0.20745E-02   -0.60957E-03   860   0.114E+00    0.768E-01
DAV:   6    -0.135160404978E+03    0.92562E-03   -0.28299E-03   866   0.816E-01    0.418E-01
DAV:   7    -0.135161476766E+03   -0.10718E-02   -0.39117E-03   940   0.683E-01    0.755E-01
DAV:   8    -0.135160818390E+03    0.65838E-03   -0.43515E-03   884   0.666E-01    0.599E-01
DAV:   9    -0.135160185533E+03    0.63286E-03   -0.17091E-03   820   0.465E-01    0.225E-01
DAV:  10    -0.135160401908E+03   -0.21638E-03   -0.31214E-04   538   0.242E-01    0.215E-01
DAV:  11    -0.135160406514E+03   -0.46063E-05   -0.28211E-04   498   0.211E-01
  24 F= -.13516041E+03 E0= -.13515673E+03  d E =-.739190E-02  mag=    20.0000
       N       E                     dE             d eps       ncg     rms          rms(c)
DAV:   1    -0.135163189804E+03   -0.27879E-02   -0.56507E-01   792   0.143E+00    0.247E-01
DAV:   2    -0.135170632960E+03   -0.74432E-02   -0.17692E-02  1058   0.132E+00    0.188E+00
DAV:   3    -0.135161784009E+03    0.88490E-02   -0.13193E-02   884   0.128E+00    0.406E-01
DAV:   4    -0.135163839180E+03   -0.20552E-02   -0.23823E-03   948   0.651E-01    0.410E-01
DAV:   5    -0.135163883363E+03   -0.44183E-04   -0.14045E-03   852   0.468E-01    0.390E-01
DAV:   6    -0.135163604929E+03    0.27843E-03   -0.98112E-04   818   0.401E-01    0.261E-01
DAV:   7    -0.135163618767E+03   -0.13838E-04   -0.62065E-04   532   0.294E-01
  25 F= -.13516362E+03 E0= -.13516004E+03  d E =-.321225E-02  mag=    20.0000
       N       E                     dE             d eps       ncg     rms          rms(c)
DAV:   1    -0.135166960188E+03   -0.33553E-02   -0.75000E-01   792   0.167E+00    0.422E-01
DAV:   2    -0.135199936487E+03   -0.32976E-01   -0.48895E-02   954   0.289E+00    0.389E+00
DAV:   3    -0.135163537591E+03    0.36399E-01   -0.47277E-02   868   0.271E+00    0.871E-01
DAV:   4    -0.135167041500E+03   -0.35039E-02   -0.63187E-03   988   0.933E-01    0.468E-01
DAV:   5    -0.135168088264E+03   -0.10468E-02   -0.41743E-03  1018   0.699E-01    0.662E-01
DAV:   6    -0.135167134342E+03    0.95392E-03   -0.31060E-03   844   0.588E-01    0.311E-01
DAV:   7    -0.135167178468E+03   -0.44126E-04   -0.87163E-04   850   0.389E-01
  26 F= -.13516718E+03 E0= -.13516365E+03  d E =-.355970E-02  mag=    20.0000
       N       E                     dE             d eps       ncg     rms          rms(c)
DAV:   1    -0.135165039940E+03    0.20944E-02   -0.29083E-01   798   0.111E+00    0.332E-01
DAV:   2    -0.135187085216E+03   -0.22045E-01   -0.23584E-02   890   0.253E+00    0.296E+00
DAV:   3    -0.135163525760E+03    0.23559E-01   -0.23242E-02   868   0.234E+00    0.842E-01
DAV:   4    -0.135164836402E+03   -0.13106E-02   -0.46913E-03   974   0.725E-01    0.283E-01
DAV:   5    -0.135165177143E+03   -0.34074E-03   -0.11924E-03   952   0.374E-01    0.242E-01
DAV:   6    -0.135165235819E+03   -0.58675E-04   -0.75956E-04   720   0.283E-01
  27 F= -.13516524E+03 E0= -.13516158E+03  d E =0.194265E-02  mag=    20.0000
       N       E                     dE             d eps       ncg     rms          rms(c)
DAV:   1    -0.135167266948E+03   -0.20898E-02   -0.36543E-01   798   0.116E+00    0.189E-01
DAV:   2    -0.135173405363E+03   -0.61384E-02   -0.15178E-02  1040   0.113E+00    0.177E+00
DAV:   3    -0.135165804984E+03    0.76004E-02   -0.12452E-02   892   0.111E+00    0.253E-01
DAV:   4    -0.135167735099E+03   -0.19301E-02   -0.14697E-03   940   0.477E-01    0.330E-01
DAV:   5    -0.135167817591E+03   -0.82492E-04   -0.11721E-03   802   0.377E-01    0.345E-01
DAV:   6    -0.135167577193E+03    0.24040E-03   -0.69738E-04   594   0.309E-01    0.187E-01
DAV:   7    -0.135167593460E+03   -0.16268E-04   -0.21381E-04   474   0.192E-01
  28 F= -.13516759E+03 E0= -.13516402E+03  d E =-.235764E-02  mag=    20.0000
       N       E                     dE             d eps       ncg     rms          rms(c)
DAV:   1    -0.135156780437E+03    0.10797E-01   -0.41633E+00   792   0.388E+00    0.677E-01
DAV:   2    -0.135227125850E+03   -0.70345E-01   -0.14052E-01  1088   0.387E+00    0.607E+00
DAV:   3    -0.135146135487E+03    0.80990E-01   -0.98121E-02   882   0.374E+00    0.841E-01
DAV:   4    -0.135163832272E+03   -0.17697E-01   -0.22361E-02  1036   0.170E+00    0.161E+00
DAV:   5    -0.135161373371E+03    0.24589E-02   -0.21283E-02   906   0.144E+00    0.112E+00
DAV:   6    -0.135159358599E+03    0.20148E-02   -0.72051E-03   858   0.111E+00    0.591E-01
DAV:   7    -0.135159878953E+03   -0.52035E-03   -0.30184E-03   986   0.778E-01    0.609E-01
DAV:   8    -0.135160658850E+03   -0.77990E-03   -0.41605E-03   928   0.787E-01    0.779E-01
DAV:   9    -0.135159301101E+03    0.13577E-02   -0.25464E-03   866   0.693E-01    0.428E-01
DAV:  10    -0.135159217055E+03    0.84046E-04   -0.81527E-04   728   0.313E-01
  29 F= -.13515922E+03 E0= -.13515554E+03  d E =0.837641E-02  mag=    20.0000
       N       E                     dE             d eps       ncg     rms          rms(c)
DAV:   1    -0.135161948353E+03   -0.26473E-02   -0.46039E-01   816   0.135E+00    0.406E-01
DAV:   2    -0.135204294171E+03   -0.42346E-01   -0.58028E-02   930   0.311E+00    0.449E+00
DAV:   3    -0.135156662244E+03    0.47632E-01   -0.56991E-02   898   0.291E+00    0.757E-01
DAV:   4    -0.135161726160E+03   -0.50639E-02   -0.41705E-03   988   0.803E-01    0.332E-01
DAV:   5    -0.135162667384E+03   -0.94122E-03   -0.33528E-03  1028   0.540E-01    0.560E-01
DAV:   6    -0.135161938500E+03    0.72888E-03   -0.18725E-03   826   0.447E-01    0.173E-01
DAV:   7    -0.135162094452E+03   -0.15595E-03   -0.35482E-04   584   0.253E-01    0.164E-01
DAV:   8    -0.135162223459E+03   -0.12901E-03   -0.38238E-04   544   0.260E-01    0.251E-01
DAV:   9    -0.135162101796E+03    0.12166E-03   -0.29170E-04   496   0.229E-01    0.164E-01
DAV:  10    -0.135162083740E+03    0.18056E-04   -0.12109E-04   480   0.144E-01
  30 F= -.13516208E+03 E0= -.13515845E+03  d E =-.286668E-02  mag=    20.0000
       N       E                     dE             d eps       ncg     rms          rms(c)
DAV:   1    -0.135164808343E+03   -0.27065E-02   -0.51687E-01   804   0.138E+00    0.232E-01
DAV:   2    -0.135170825902E+03   -0.60176E-02   -0.14592E-02  1112   0.118E+00    0.172E+00
DAV:   3    -0.135163452399E+03    0.73735E-02   -0.11021E-02   898   0.118E+00    0.357E-01
DAV:   4    -0.135165505646E+03   -0.20532E-02   -0.23533E-03   948   0.607E-01    0.454E-01
DAV:   5    -0.135165292677E+03    0.21297E-03   -0.12509E-03   848   0.446E-01    0.326E-01
DAV:   6    -0.135165094515E+03    0.19816E-03   -0.72420E-04   746   0.345E-01    0.186E-01
DAV:   7    -0.135165258835E+03   -0.16432E-03   -0.62661E-04   562   0.286E-01    0.285E-01
DAV:   8    -0.135165254131E+03    0.47041E-05   -0.68288E-04   560   0.287E-01
  31 F= -.13516525E+03 E0= -.13516167E+03  d E =-.317039E-02  mag=    20.0000
       N       E                     dE             d eps       ncg     rms          rms(c)
DAV:   1    -0.135168231494E+03   -0.29727E-02   -0.80011E-01   804   0.173E+00    0.277E-01
DAV:   2    -0.135175892542E+03   -0.76610E-02   -0.12869E-02  1114   0.136E+00    0.186E+00
DAV:   3    -0.135167567915E+03    0.83246E-02   -0.95242E-03   860   0.134E+00    0.438E-01
DAV:   4    -0.135169490219E+03   -0.19223E-02   -0.45526E-03   900   0.740E-01    0.636E-01
DAV:   5    -0.135169152009E+03    0.33821E-03   -0.37327E-03   922   0.609E-01    0.479E-01
DAV:   6    -0.135168730208E+03    0.42180E-03   -0.17093E-03   842   0.492E-01    0.281E-01
DAV:   7    -0.135168825232E+03   -0.95023E-04   -0.90672E-04   732   0.344E-01
  32 F= -.13516883E+03 E0= -.13516525E+03  d E =-.357110E-02  mag=    20.0000
       N       E                     dE             d eps       ncg     rms          rms(c)
DAV:   1    -0.135172737192E+03   -0.40070E-02   -0.11526E+00   798   0.208E+00    0.531E-01
DAV:   2    -0.135226070236E+03   -0.53333E-01   -0.90588E-02   954   0.356E+00    0.508E+00
DAV:   3    -0.135163608554E+03    0.62462E-01   -0.61266E-02   900   0.340E+00    0.107E+00
DAV:   4    -0.135172654365E+03   -0.90458E-02   -0.10313E-02   990   0.120E+00    0.558E-01
DAV:   5    -0.135174602650E+03   -0.19483E-02   -0.57859E-03  1018   0.859E-01    0.840E-01
DAV:   6    -0.135173080631E+03    0.15220E-02   -0.41491E-03   876   0.753E-01    0.411E-01
DAV:   7    -0.135173059023E+03    0.21608E-04   -0.14647E-03   898   0.492E-01    0.282E-01
DAV:   8    -0.135173621080E+03   -0.56206E-03   -0.18549E-03   850   0.467E-01    0.572E-01
DAV:   9    -0.135172986428E+03    0.63465E-03   -0.13780E-03   780   0.433E-01    0.262E-01
DAV:  10    -0.135172998623E+03   -0.12195E-04   -0.30622E-04   512   0.252E-01
  33 F= -.13517300E+03 E0= -.13516943E+03  d E =-.417339E-02  mag=    20.0000
       N       E                     dE             d eps       ncg     rms          rms(c)
DAV:   1    -0.135178064343E+03   -0.50779E-02   -0.34356E+00   792   0.355E+00    0.582E-01
DAV:   2    -0.135221774493E+03   -0.43710E-01   -0.76589E-02  1146   0.308E+00    0.467E+00
DAV:   3    -0.135171278635E+03    0.50496E-01   -0.68624E-02   876   0.304E+00    0.652E-01
DAV:   4    -0.135184552826E+03   -0.13274E-01   -0.15993E-02  1002   0.149E+00    0.149E+00
DAV:   5    -0.135180223248E+03    0.43296E-02   -0.12635E-02   868   0.127E+00    0.773E-01
DAV:   6    -0.135180158505E+03    0.64743E-04   -0.58092E-03   850   0.817E-01    0.548E-01
DAV:   7    -0.135181243879E+03   -0.10854E-02   -0.39778E-03   892   0.784E-01    0.765E-01
DAV:   8    -0.135180519265E+03    0.72461E-03   -0.27583E-03   868   0.713E-01    0.552E-01
DAV:   9    -0.135179970585E+03    0.54868E-03   -0.12963E-03   834   0.486E-01    0.248E-01
DAV:  10    -0.135180078287E+03   -0.10770E-03   -0.46549E-04   570   0.260E-01    0.260E-01
DAV:  11    -0.135180067521E+03    0.10767E-04   -0.41413E-04   504   0.233E-01
  34 F= -.13518007E+03 E0= -.13517656E+03  d E =-.706890E-02  mag=    20.0000
       N       E                     dE             d eps       ncg     rms          rms(c)
DAV:   1    -0.135179258238E+03    0.82005E-03   -0.54135E-02   804   0.488E-01    0.113E-01
DAV:   2    -0.135182025543E+03   -0.27673E-02   -0.43424E-03   944   0.802E-01    0.116E+00
DAV:   3    -0.135178645378E+03    0.33802E-02   -0.47043E-03   908   0.769E-01    0.234E-01
DAV:   4    -0.135179322798E+03   -0.67742E-03   -0.44681E-04   548   0.259E-01    0.121E-01
DAV:   5    -0.135179414105E+03   -0.91307E-04   -0.23793E-04   520   0.188E-01
  35 F= -.13517941E+03 E0= -.13517590E+03  d E =0.653415E-03  mag=    20.0000
       N       E                     dE             d eps       ncg     rms          rms(c)
DAV:   1    -0.135180478265E+03   -0.11555E-02   -0.94454E-02   810   0.612E-01    0.133E-01
DAV:   2    -0.135184371718E+03   -0.38935E-02   -0.63960E-03   930   0.973E-01    0.136E+00
DAV:   3    -0.135179775627E+03    0.45961E-02   -0.65802E-03   876   0.923E-01    0.318E-01
DAV:   4    -0.135180521184E+03   -0.74556E-03   -0.69177E-04   772   0.329E-01    0.123E-01
DAV:   5    -0.135180621564E+03   -0.10038E-03   -0.35737E-04   536   0.199E-01    0.190E-01
DAV:   6    -0.135180592591E+03    0.28973E-04   -0.24703E-04   482   0.179E-01
  36 F= -.13518059E+03 E0= -.13517708E+03  d E =-.117849E-02  mag=    20.0000
       N       E                     dE             d eps       ncg     rms          rms(c)
DAV:   1    -0.135181206745E+03   -0.58518E-03   -0.25905E-02   804   0.331E-01    0.820E-02
DAV:   2    -0.135182437321E+03   -0.12306E-02   -0.17689E-03   858   0.524E-01    0.771E-01
DAV:   3    -0.135180902385E+03    0.15349E-02   -0.15349E-03   788   0.499E-01    0.116E-01
DAV:   4    -0.135181245759E+03   -0.34337E-03   -0.21968E-04   492   0.176E-01    0.136E-01
DAV:   5    -0.135181277040E+03   -0.31281E-04   -0.27235E-04   488   0.161E-01
  37 F= -.13518128E+03 E0= -.13517781E+03  d E =-.684449E-03  mag=    20.0000
       N       E                     dE             d eps       ncg     rms          rms(c)
DAV:   1    -0.135181583216E+03   -0.33746E-03   -0.67904E-03   960   0.211E-01    0.950E-02
DAV:   2    -0.135184217959E+03   -0.26347E-02   -0.47820E-03   882   0.756E-01    0.117E+00
DAV:   3    -0.135180662067E+03    0.35559E-02   -0.43330E-03   860   0.711E-01    0.153E-01
DAV:   4    -0.135181528432E+03   -0.86637E-03   -0.18172E-04   522   0.182E-01    0.799E-02
DAV:   5    -0.135181612504E+03   -0.84071E-04   -0.11111E-04   520   0.124E-01
  38 F= -.13518161E+03 E0= -.13517813E+03  d E =-.335464E-03  mag=    20.0000
       N       E                     dE             d eps       ncg     rms          rms(c)
DAV:   1    -0.135182871460E+03   -0.13430E-02   -0.99482E-02   798   0.600E-01    0.176E-01
DAV:   2    -0.135190748339E+03   -0.78769E-02   -0.10058E-02   914   0.132E+00    0.198E+00
DAV:   3    -0.135180895099E+03    0.98532E-02   -0.88192E-03   900   0.125E+00    0.257E-01
DAV:   4    -0.135182826727E+03   -0.19316E-02   -0.73918E-04   818   0.368E-01    0.186E-01
DAV:   5    -0.135183019432E+03   -0.19270E-03   -0.75658E-04   596   0.274E-01    0.284E-01
DAV:   6    -0.135182902793E+03    0.11664E-03   -0.59925E-04   538   0.255E-01    0.200E-01
DAV:   7    -0.135182855986E+03    0.46807E-04   -0.20886E-04   460   0.182E-01
  39 F= -.13518286E+03 E0= -.13517934E+03  d E =-.124348E-02  mag=    20.0000
       N       E                     dE             d eps       ncg     rms          rms(c)
DAV:   1    -0.135184643094E+03   -0.17403E-02   -0.18877E-01   792   0.808E-01    0.216E-01
DAV:   2    -0.135193331013E+03   -0.86879E-02   -0.17452E-02   914   0.145E+00    0.202E+00
DAV:   3    -0.135182955042E+03    0.10376E-01   -0.13775E-02   916   0.137E+00    0.451E-01
DAV:   4    -0.135184576920E+03   -0.16219E-02   -0.13707E-03   900   0.495E-01    0.202E-01
DAV:   5    -0.135184961672E+03   -0.38475E-03   -0.77231E-04   784   0.343E-01    0.385E-01
DAV:   6    -0.135184610781E+03    0.35089E-03   -0.62655E-04   652   0.317E-01    0.141E-01
DAV:   7    -0.135184685779E+03   -0.74998E-04   -0.24622E-04   482   0.205E-01
  40 F= -.13518469E+03 E0= -.13518119E+03  d E =-.182979E-02  mag=    20.0000
       N       E                     dE             d eps       ncg     rms          rms(c)
DAV:   1    -0.135186584092E+03   -0.19733E-02   -0.21537E-01   804   0.885E-01    0.320E-01
DAV:   2    -0.135215398732E+03   -0.28815E-01   -0.44950E-02   914   0.252E+00    0.382E+00
DAV:   3    -0.135180358959E+03    0.35040E-01   -0.43565E-02   908   0.238E+00    0.524E-01
DAV:   4    -0.135186267737E+03   -0.59088E-02   -0.23447E-03   938   0.645E-01    0.297E-01
DAV:   5    -0.135186795026E+03   -0.52729E-03   -0.19623E-03   940   0.426E-01    0.414E-01
DAV:   6    -0.135186626797E+03    0.16823E-03   -0.13380E-03   812   0.384E-01    0.317E-01
DAV:   7    -0.135186487744E+03    0.13905E-03   -0.42441E-04   580   0.298E-01    0.136E-01
DAV:   8    -0.135186564928E+03   -0.77183E-04   -0.25075E-04   496   0.196E-01
  41 F= -.13518656E+03 E0= -.13518309E+03  d E =-.187915E-02  mag=    20.0000
       N       E                     dE             d eps       ncg     rms          rms(c)
DAV:   1    -0.135189822492E+03   -0.33347E-02   -0.83302E-01   792   0.168E+00    0.336E-01
DAV:   2    -0.135205429555E+03   -0.15607E-01   -0.32410E-02  1026   0.192E+00    0.274E+00
DAV:   3    -0.135187405219E+03    0.18024E-01   -0.26248E-02   876   0.186E+00    0.559E-01
DAV:   4    -0.135190488249E+03   -0.30830E-02   -0.46321E-03   980   0.785E-01    0.538E-01
DAV:   5    -0.135191007942E+03   -0.51969E-03   -0.41930E-03   936   0.637E-01    0.688E-01
DAV:   6    -0.135189845601E+03    0.11623E-02   -0.28452E-03   860   0.565E-01    0.224E-01
DAV:   7    -0.135190393357E+03   -0.54776E-03   -0.12316E-03   796   0.401E-01    0.406E-01
DAV:   8    -0.135190396971E+03   -0.36142E-05   -0.16054E-03   812   0.424E-01    0.415E-01
DAV:   9    -0.135190109020E+03    0.28795E-03   -0.73526E-04   666   0.351E-01    0.203E-01
DAV:  10    -0.135190097206E+03    0.11814E-04   -0.12293E-04   466   0.177E-01
  42 F= -.13519010E+03 E0= -.13518661E+03  d E =-.353228E-02  mag=    20.0000
       N       E                     dE             d eps       ncg     rms          rms(c)
DAV:   1    -0.135191228622E+03   -0.11196E-02   -0.82359E-02   798   0.536E-01    0.121E-01
DAV:   2    -0.135193471962E+03   -0.22433E-02   -0.26082E-03   968   0.772E-01    0.960E-01
DAV:   3    -0.135190926732E+03    0.25452E-02   -0.20678E-03   884   0.728E-01    0.210E-01
DAV:   4    -0.135191287262E+03   -0.36053E-03   -0.42533E-04   564   0.253E-01    0.168E-01
DAV:   5    -0.135191364431E+03   -0.77170E-04   -0.32249E-04   498   0.212E-01
  43 F= -.13519136E+03 E0= -.13518791E+03  d E =-.126723E-02  mag=    20.0000
       N       E                     dE             d eps       ncg     rms          rms(c)
DAV:   1    -0.135190850220E+03    0.43704E-03   -0.21756E-02   818   0.354E-01    0.101E-01
DAV:   2    -0.135193586299E+03   -0.27361E-02   -0.51762E-03   868   0.811E-01    0.115E+00
DAV:   3    -0.135190281945E+03    0.33044E-02   -0.50272E-03   884   0.756E-01    0.258E-01
DAV:   4    -0.135190856369E+03   -0.57442E-03   -0.30239E-04   532   0.240E-01    0.713E-02
DAV:   5    -0.135190904504E+03   -0.48135E-04   -0.11617E-04   520   0.114E-01
  44 F= -.13519090E+03 E0= -.13518744E+03  d E =0.459928E-03  mag=    20.0000
       N       E                     dE             d eps       ncg     rms          rms(c)
DAV:   1    -0.135196427575E+03   -0.55712E-02   -0.33050E+00   792   0.333E+00    0.625E-01
DAV:   2    -0.135258550622E+03   -0.62123E-01   -0.12197E-01  1050   0.367E+00    0.562E+00
DAV:   3    -0.135185121053E+03    0.73430E-01   -0.99481E-02   892   0.355E+00    0.718E-01
DAV:   4    -0.135200654597E+03   -0.15534E-01   -0.16394E-02  1050   0.149E+00    0.122E+00
DAV:   5    -0.135199234134E+03    0.14205E-02   -0.11342E-02   908   0.119E+00    0.984E-01
DAV:   6    -0.135197567743E+03    0.16664E-02   -0.76250E-03   866   0.920E-01    0.525E-01
DAV:   7    -0.135199030892E+03   -0.14631E-02   -0.48322E-03   908   0.782E-01    0.814E-01
DAV:   8    -0.135198691893E+03    0.33900E-03   -0.51148E-03   912   0.784E-01    0.735E-01
DAV:   9    -0.135197626005E+03    0.10659E-02   -0.21402E-03   860   0.591E-01    0.268E-01
DAV:  10    -0.135197769674E+03   -0.14367E-03   -0.42268E-04   632   0.277E-01    0.229E-01
DAV:  11    -0.135197736166E+03    0.33508E-04   -0.23453E-04   506   0.200E-01
  45 F= -.13519774E+03 E0= -.13519429E+03  d E =-.683166E-02  mag=    20.0000
       N       E                     dE             d eps       ncg     rms          rms(c)
DAV:   1    -0.135193631033E+03    0.41386E-02   -0.10258E+00   792   0.186E+00    0.348E-01
DAV:   2    -0.135213217349E+03   -0.19586E-01   -0.38090E-02  1040   0.204E+00    0.320E+00
DAV:   3    -0.135189769784E+03    0.23448E-01   -0.30223E-02   900   0.198E+00    0.372E-01
DAV:   4    -0.135195394227E+03   -0.56244E-02   -0.67662E-03  1066   0.822E-01    0.896E-01
DAV:   5    -0.135193982464E+03    0.14118E-02   -0.51807E-03   888   0.687E-01    0.440E-01
DAV:   6    -0.135194135074E+03   -0.15261E-03   -0.16401E-03   842   0.483E-01    0.317E-01
DAV:   7    -0.135194585292E+03   -0.45022E-03   -0.13431E-03   842   0.475E-01    0.484E-01
DAV:   8    -0.135194284876E+03    0.30042E-03   -0.11515E-03   800   0.438E-01    0.326E-01
DAV:   9    -0.135194108563E+03    0.17631E-03   -0.45808E-04   544   0.285E-01    0.153E-01
DAV:  10    -0.135194144425E+03   -0.35862E-04   -0.16888E-04   480   0.142E-01
  46 F= -.13519414E+03 E0= -.13519066E+03  d E =0.359174E-02  mag=    20.0000
       N       E                     dE             d eps       ncg     rms          rms(c)
DAV:   1    -0.135196462250E+03   -0.23537E-02   -0.39785E-01   804   0.116E+00    0.251E-01
DAV:   2    -0.135208878525E+03   -0.12416E-01   -0.21187E-02  1002   0.166E+00    0.250E+00
DAV:   3    -0.135193952216E+03    0.14926E-01   -0.19476E-02   900   0.158E+00    0.365E-01
DAV:   4    -0.135196702023E+03   -0.27498E-02   -0.25595E-03   980   0.554E-01    0.383E-01
DAV:   5    -0.135196953525E+03   -0.25150E-03   -0.22909E-03   864   0.453E-01    0.445E-01
DAV:   6    -0.135196525758E+03    0.42777E-03   -0.12476E-03   820   0.399E-01    0.194E-01
DAV:   7    -0.135196646462E+03   -0.12070E-03   -0.49186E-04   522   0.263E-01    0.228E-01
DAV:   8    -0.135196737228E+03   -0.90766E-04   -0.61481E-04   528   0.277E-01
  47 F= -.13519674E+03 E0= -.13519338E+03  d E =-.259280E-02  mag=    20.0000
       N       E                     dE             d eps       ncg     rms          rms(c)
DAV:   1    -0.135197853494E+03   -0.12070E-02   -0.12478E-01   816   0.691E-01    0.143E-01
DAV:   2    -0.135200586616E+03   -0.27331E-02   -0.38942E-03  1026   0.884E-01    0.105E+00
DAV:   3    -0.135197682039E+03    0.29046E-02   -0.29234E-03   900   0.827E-01    0.322E-01
DAV:   4    -0.135197934455E+03   -0.25242E-03   -0.78634E-04   820   0.347E-01    0.179E-01
DAV:   5    -0.135198061376E+03   -0.12692E-03   -0.42327E-04   554   0.264E-01    0.235E-01
DAV:   6    -0.135197978313E+03    0.83063E-04   -0.41855E-04   506   0.237E-01
  48 F= -.13519798E+03 E0= -.13519453E+03  d E =-.124109E-02  mag=    20.0000
       N       E                     dE             d eps       ncg     rms          rms(c)
DAV:   1    -0.135199442635E+03   -0.13813E-02   -0.15963E-01   798   0.745E-01    0.163E-01
DAV:   2    -0.135203223579E+03   -0.37809E-02   -0.58356E-03  1042   0.933E-01    0.135E+00
DAV:   3    -0.135198701820E+03    0.45218E-02   -0.57433E-03   876   0.902E-01    0.260E-01
DAV:   4    -0.135199605638E+03   -0.90382E-03   -0.10116E-03   804   0.368E-01    0.299E-01
DAV:   5    -0.135199602147E+03    0.34908E-05   -0.66905E-04   706   0.313E-01
  49 F= -.13519960E+03 E0= -.13519617E+03  d E =-.162383E-02  mag=    20.0000
       N       E                     dE             d eps       ncg     rms          rms(c)
DAV:   1    -0.135202190231E+03   -0.25846E-02   -0.53742E-01   792   0.136E+00    0.336E-01
DAV:   2    -0.135226250383E+03   -0.24060E-01   -0.44452E-02   962   0.222E+00    0.353E+00
DAV:   3    -0.135196138457E+03    0.30112E-01   -0.35925E-02   908   0.215E+00    0.303E-01
DAV:   4    -0.135202740755E+03   -0.66023E-02   -0.32030E-03  1034   0.735E-01    0.600E-01
DAV:   5    -0.135202768912E+03   -0.28157E-04   -0.28021E-03   906   0.619E-01    0.516E-01
DAV:   6    -0.135202230082E+03    0.53883E-03   -0.13111E-03   864   0.502E-01    0.220E-01
DAV:   7    -0.135202510378E+03   -0.28030E-03   -0.89377E-04   762   0.358E-01    0.373E-01
DAV:   8    -0.135202424435E+03    0.85943E-04   -0.97214E-04   706   0.353E-01
  50 F= -.13520242E+03 E0= -.13519895E+03  d E =-.282229E-02  mag=    20.0000
       N       E                     dE             d eps       ncg     rms          rms(c)
DAV:   1    -0.135204376864E+03   -0.18665E-02   -0.39657E-01   792   0.118E+00    0.196E-01
DAV:   2    -0.135207716737E+03   -0.33399E-02   -0.67664E-03  1152   0.900E-01    0.122E+00
DAV:   3    -0.135204104795E+03    0.36119E-02   -0.43628E-03   874   0.894E-01    0.324E-01
DAV:   4    -0.135204875290E+03   -0.77050E-03   -0.15446E-03   924   0.516E-01    0.349E-01
DAV:   5    -0.135204756489E+03    0.11880E-03   -0.72047E-04   794   0.366E-01    0.268E-01
DAV:   6    -0.135204639157E+03    0.11733E-03   -0.45015E-04   604   0.319E-01    0.155E-01
DAV:   7    -0.135204839050E+03   -0.19989E-03   -0.58952E-04   578   0.291E-01    0.310E-01
DAV:   8    -0.135204712246E+03    0.12680E-03   -0.78071E-04   532   0.275E-01    0.242E-01
DAV:   9    -0.135204635321E+03    0.76925E-04   -0.22824E-04   476   0.189E-01
  51 F= -.13520464E+03 E0= -.13520117E+03  d E =-.221089E-02  mag=    20.0000
       N       E                     dE             d eps       ncg     rms          rms(c)
DAV:   1    -0.135200023307E+03    0.46889E-02   -0.12442E+00   792   0.203E+00    0.396E-01
DAV:   2    -0.135226149996E+03   -0.26127E-01   -0.42580E-02   960   0.242E+00    0.362E+00
DAV:   3    -0.135195408063E+03    0.30742E-01   -0.39617E-02   914   0.230E+00    0.588E-01
DAV:   4    -0.135200990803E+03   -0.55827E-02   -0.56511E-03   994   0.919E-01    0.633E-01
DAV:   5    -0.135201849404E+03   -0.85860E-03   -0.68526E-03   914   0.766E-01    0.870E-01
DAV:   6    -0.135200122348E+03    0.17271E-02   -0.41164E-03   882   0.686E-01    0.324E-01
DAV:   7    -0.135200761350E+03   -0.63900E-03   -0.12947E-03   890   0.476E-01    0.404E-01
DAV:   8    -0.135200987591E+03   -0.22624E-03   -0.14516E-03   848   0.474E-01    0.460E-01
DAV:   9    -0.135200490721E+03    0.49687E-03   -0.86744E-04   792   0.405E-01    0.196E-01
DAV:  10    -0.135200517332E+03   -0.26611E-04   -0.24475E-04   504   0.190E-01
  52 F= -.13520052E+03 E0= -.13519708E+03  d E =0.411799E-02  mag=    20.0000
       N       E                     dE             d eps       ncg     rms          rms(c)
DAV:   1    -0.135199353383E+03    0.11373E-02   -0.83888E-02   824   0.549E-01    0.143E-01
DAV:   2    -0.135202742638E+03   -0.33893E-02   -0.45475E-03   946   0.957E-01    0.120E+00
DAV:   3    -0.135198992545E+03    0.37501E-02   -0.41679E-03   880   0.890E-01    0.330E-01
DAV:   4    -0.135199343945E+03   -0.35140E-03   -0.59028E-04   708   0.313E-01    0.127E-01
DAV:   5    -0.135199464817E+03   -0.12087E-03   -0.30645E-04   528   0.223E-01    0.204E-01
DAV:   6    -0.135199401897E+03    0.62920E-04   -0.29746E-04   506   0.196E-01
  53 F= -.13519940E+03 E0= -.13519592E+03  d E =0.111543E-02  mag=    20.0000
       N       E                     dE             d eps       ncg     rms          rms(c)
DAV:   1    -0.135197868809E+03    0.15960E-02   -0.14097E-01   810   0.699E-01    0.165E-01
DAV:   2    -0.135202935045E+03   -0.50662E-02   -0.82366E-03   946   0.105E+00    0.161E+00
DAV:   3    -0.135196657053E+03    0.62780E-02   -0.78793E-03   884   0.101E+00    0.262E-01
DAV:   4    -0.135197928122E+03   -0.12711E-02   -0.82891E-04   794   0.369E-01    0.239E-01
DAV:   5    -0.135198047494E+03   -0.11937E-03   -0.56032E-04   674   0.309E-01    0.255E-01
DAV:   6    -0.135197904992E+03    0.14250E-03   -0.39393E-04   554   0.274E-01    0.170E-01
DAV:   7    -0.135197909779E+03   -0.47867E-05   -0.29479E-04   474   0.184E-01
  54 F= -.13519791E+03 E0= -.13519445E+03  d E =0.149212E-02  mag=    20.0000
       N       E                     dE             d eps       ncg     rms          rms(c)
DAV:   1    -0.135202065428E+03   -0.41604E-02   -0.14902E+00   792   0.223E+00    0.412E-01
DAV:   2    -0.135227018437E+03   -0.24953E-01   -0.42139E-02  1074   0.241E+00    0.351E+00
DAV:   3    -0.135198033052E+03    0.28985E-01   -0.36441E-02   890   0.231E+00    0.650E-01
DAV:   4    -0.135203371061E+03   -0.53380E-02   -0.71157E-03   946   0.102E+00    0.709E-01
DAV:   5    -0.135204045902E+03   -0.67484E-03   -0.66372E-03   986   0.851E-01    0.795E-01
DAV:   6    -0.135202781723E+03    0.12642E-02   -0.43333E-03   866   0.747E-01    0.478E-01
DAV:   7    -0.135202684916E+03    0.96807E-04   -0.15158E-03   890   0.496E-01    0.282E-01
DAV:   8    -0.135203433083E+03   -0.74817E-03   -0.18297E-03   864   0.497E-01    0.582E-01
DAV:   9    -0.135202554440E+03    0.87864E-03   -0.16594E-03   832   0.454E-01    0.198E-01
DAV:  10    -0.135202695407E+03   -0.14097E-03   -0.23108E-04   512   0.200E-01    0.145E-01
DAV:  11    -0.135202716085E+03   -0.20679E-04   -0.16112E-04   496   0.150E-01
  55 F= -.13520272E+03 E0= -.13519930E+03  d E =-.480631E-02  mag=    20.0000
       N       E                     dE             d eps       ncg     rms          rms(c)
DAV:   1    -0.135205579581E+03   -0.28842E-02   -0.71778E-01   792   0.154E+00    0.267E-01
DAV:   2    -0.135214170632E+03   -0.85911E-02   -0.19136E-02  1098   0.136E+00    0.210E+00
DAV:   3    -0.135203496366E+03    0.10674E-01   -0.14451E-02   884   0.134E+00    0.292E-01
DAV:   4    -0.135206584043E+03   -0.30877E-02   -0.26324E-03   930   0.696E-01    0.563E-01
DAV:   5    -0.135206292520E+03    0.29152E-03   -0.24795E-03   874   0.588E-01    0.489E-01
DAV:   6    -0.135205844257E+03    0.44826E-03   -0.15891E-03   828   0.454E-01    0.266E-01
DAV:   7    -0.135206040065E+03   -0.19581E-03   -0.86516E-04   762   0.361E-01    0.304E-01
DAV:   8    -0.135206108454E+03   -0.68389E-04   -0.88737E-04   704   0.343E-01
  56 F= -.13520611E+03 E0= -.13520280E+03  d E =-.339237E-02  mag=    20.0000
       N       E                     dE             d eps       ncg     rms          rms(c)
DAV:   1    -0.135203717650E+03    0.23224E-02   -0.29970E-01   798   0.103E+00    0.243E-01
DAV:   2    -0.135217704479E+03   -0.13987E-01   -0.24398E-02   960   0.173E+00    0.269E+00
DAV:   3    -0.135200633174E+03    0.17071E-01   -0.21701E-02   908   0.164E+00    0.369E-01
DAV:   4    -0.135203775206E+03   -0.31420E-02   -0.16819E-03   914   0.511E-01    0.291E-01
DAV:   5    -0.135204169361E+03   -0.39415E-03   -0.12732E-03   880   0.413E-01    0.358E-01
DAV:   6    -0.135203955404E+03    0.21396E-03   -0.10354E-03   786   0.367E-01    0.283E-01
DAV:   7    -0.135203860445E+03    0.94959E-04   -0.49219E-04   506   0.255E-01
  57 F= -.13520386E+03 E0= -.13520043E+03  d E =0.224801E-02  mag=    20.0000
       N       E                     dE             d eps       ncg     rms          rms(c)
DAV:   1    -0.135204711473E+03   -0.75607E-03   -0.34880E-02   816   0.422E-01    0.237E-01
DAV:   2    -0.135217369419E+03   -0.12658E-01   -0.13701E-02   914   0.188E+00    0.231E+00
DAV:   3    -0.135203591739E+03    0.13778E-01   -0.10284E-02   876   0.173E+00    0.577E-01
DAV:   4    -0.135204443401E+03   -0.85166E-03   -0.14440E-03   884   0.458E-01    0.141E-01
DAV:   5    -0.135204618802E+03   -0.17540E-03   -0.32642E-04   576   0.186E-01    0.113E-01
DAV:   6    -0.135204654952E+03   -0.36151E-04   -0.25421E-04   472   0.156E-01
  58 F= -.13520465E+03 E0= -.13520124E+03  d E =-.794507E-03  mag=    20.0000
       N       E                     dE             d eps       ncg     rms          rms(c)
DAV:   1    -0.135205267924E+03   -0.64912E-03   -0.25646E-02   804   0.315E-01    0.101E-01
DAV:   2    -0.135207743536E+03   -0.24756E-02   -0.33126E-03   882   0.760E-01    0.110E+00
DAV:   3    -0.135204759132E+03    0.29844E-02   -0.31630E-03   844   0.712E-01    0.197E-01
DAV:   4    -0.135205239795E+03   -0.48066E-03   -0.28864E-04   516   0.205E-01    0.101E-01
DAV:   5    -0.135205287743E+03   -0.47947E-04   -0.17715E-04   512   0.148E-01
  59 F= -.13520529E+03 E0= -.13520184E+03  d E =-.632790E-03  mag=    20.0000
       N       E                     dE             d eps       ncg     rms          rms(c)
DAV:   1    -0.135205589242E+03   -0.34945E-03   -0.50625E-03  1080   0.181E-01    0.132E-01
DAV:   2    -0.135211219932E+03   -0.56307E-02   -0.90764E-03   890   0.110E+00    0.170E+00
DAV:   3    -0.135204142955E+03    0.70770E-02   -0.80791E-03   884   0.103E+00    0.224E-01
DAV:   4    -0.135205469884E+03   -0.13269E-02   -0.31217E-04   570   0.244E-01    0.882E-02
DAV:   5    -0.135205569451E+03   -0.99567E-04   -0.11802E-04   522   0.134E-01
  60 F= -.13520557E+03 E0= -.13520211E+03  d E =-.281709E-03  mag=    20.0000
       N       E                     dE             d eps       ncg     rms          rms(c)
DAV:   1    -0.135205286093E+03    0.18379E-03   -0.65512E-03   916   0.193E-01    0.138E-01
DAV:   2    -0.135211530450E+03   -0.62444E-02   -0.95460E-03   874   0.117E+00    0.179E+00
DAV:   3    -0.135203652661E+03    0.78778E-02   -0.84891E-03   882   0.109E+00    0.253E-01
DAV:   4    -0.135205158042E+03   -0.15054E-02   -0.41031E-04   596   0.274E-01    0.103E-01
DAV:   5    -0.135205252166E+03   -0.94124E-04   -0.14148E-04   528   0.123E-01
  61 F= -.13520525E+03 E0= -.13520181E+03  d E =0.317285E-03  mag=    20.0000
       N       E                     dE             d eps       ncg     rms          rms(c)
DAV:   1    -0.135205266621E+03   -0.10858E-03   -0.92610E-05   490   0.102E-01    0.105E-01
DAV:   2    -0.135208780680E+03   -0.35141E-02   -0.44431E-03   874   0.905E-01    0.130E+00
DAV:   3    -0.135204526480E+03    0.42542E-02   -0.41564E-03   868   0.835E-01    0.231E-01
DAV:   4    -0.135205201171E+03   -0.67469E-03   -0.29478E-04   538   0.213E-01    0.664E-02
DAV:   5    -0.135205247794E+03   -0.46623E-04   -0.66926E-05   520   0.908E-02
  62 F= -.13520525E+03 E0= -.13520180E+03  d E =0.437215E-05  mag=    20.0000
       N       E                     dE             d eps       ncg     rms          rms(c)
DAV:   1    -0.135207005544E+03   -0.18044E-02   -0.19780E-01   792   0.786E-01    0.163E-01
DAV:   2    -0.135211923725E+03   -0.49182E-02   -0.10032E-02   964   0.103E+00    0.160E+00
DAV:   3    -0.135205768271E+03    0.61555E-02   -0.89516E-03   900   0.993E-01    0.233E-01
DAV:   4    -0.135207088713E+03   -0.13204E-02   -0.78243E-04   868   0.378E-01    0.228E-01
DAV:   5    -0.135207250859E+03   -0.16215E-03   -0.66781E-04   730   0.317E-01    0.294E-01
DAV:   6    -0.135207058961E+03    0.19190E-03   -0.51698E-04   556   0.285E-01    0.180E-01
DAV:   7    -0.135207058760E+03    0.20081E-06   -0.29919E-04   468   0.185E-01
  63 F= -.13520706E+03 E0= -.13520363E+03  d E =-.181097E-02  mag=    20.0000
       N       E                     dE             d eps       ncg     rms          rms(c)
DAV:   1    -0.135210549285E+03   -0.34903E-02   -0.77589E-01   792   0.154E+00    0.364E-01
DAV:   2    -0.135233717419E+03   -0.23168E-01   -0.42381E-02   956   0.234E+00    0.331E+00
DAV:   3    -0.135206999633E+03    0.26718E-01   -0.35446E-02   900   0.221E+00    0.681E-01
DAV:   4    -0.135210670696E+03   -0.36711E-02   -0.38447E-03   956   0.825E-01    0.403E-01
DAV:   5    -0.135211561425E+03   -0.89073E-03   -0.30849E-03   960   0.609E-01    0.664E-01
DAV:   6    -0.135210503476E+03    0.10579E-02   -0.26681E-03   858   0.570E-01    0.254E-01
DAV:   7    -0.135210844559E+03   -0.34108E-03   -0.10438E-03   836   0.419E-01    0.321E-01
DAV:   8    -0.135211060605E+03   -0.21605E-03   -0.14987E-03   762   0.405E-01    0.478E-01
DAV:   9    -0.135210532955E+03    0.52765E-03   -0.89237E-04   650   0.348E-01    0.161E-01
DAV:  10    -0.135210634490E+03   -0.10154E-03   -0.12392E-04   476   0.166E-01    0.907E-02
DAV:  11    -0.135210661338E+03   -0.26848E-04   -0.88377E-05   488   0.109E-01
  64 F= -.13521066E+03 E0= -.13520721E+03  d E =-.360258E-02  mag=    20.0000
       N       E                     dE             d eps       ncg     rms          rms(c)
DAV:   1    -0.135213065910E+03   -0.24314E-02   -0.39856E-01   792   0.109E+00    0.203E-01
DAV:   2    -0.135218499993E+03   -0.54341E-02   -0.11919E-02  1058   0.107E+00    0.167E+00
DAV:   3    -0.135211669780E+03    0.68302E-02   -0.87783E-03   892   0.104E+00    0.196E-01
DAV:   4    -0.135213728962E+03   -0.20592E-02   -0.18722E-03   914   0.501E-01    0.531E-01
DAV:   5    -0.135213263927E+03    0.46503E-03   -0.18775E-03   834   0.442E-01    0.327E-01
DAV:   6    -0.135213194462E+03    0.69465E-04   -0.85415E-04   700   0.336E-01
  65 F= -.13521319E+03 E0= -.13520975E+03  d E =-.253312E-02  mag=    20.0000
       N       E                     dE             d eps       ncg     rms          rms(c)
DAV:   1    -0.135215619444E+03   -0.23555E-02   -0.32670E-01   798   0.103E+00    0.389E-01
DAV:   2    -0.135256179035E+03   -0.40560E-01   -0.53143E-02   930   0.298E+00    0.461E+00
DAV:   3    -0.135209590819E+03    0.46588E-01   -0.57287E-02   868   0.279E+00    0.667E-01
DAV:   4    -0.135215321884E+03   -0.57311E-02   -0.41154E-03   956   0.751E-01    0.423E-01
DAV:   5    -0.135215864994E+03   -0.54311E-03   -0.25494E-03   968   0.561E-01    0.446E-01
DAV:   6    -0.135215638980E+03    0.22601E-03   -0.15163E-03   844   0.476E-01    0.352E-01
DAV:   7    -0.135215429305E+03    0.20967E-03   -0.91948E-04   662   0.338E-01    0.208E-01
DAV:   8    -0.135215608427E+03   -0.17912E-03   -0.63927E-04   606   0.294E-01    0.271E-01
DAV:   9    -0.135215497537E+03    0.11089E-03   -0.49186E-04   536   0.254E-01    0.180E-01
DAV:  10    -0.135215441722E+03    0.55815E-04   -0.19815E-04   480   0.155E-01
  66 F= -.13521544E+03 E0= -.13521203E+03  d E =-.224726E-02  mag=    20.0000
       N       E                     dE             d eps       ncg     rms          rms(c)
DAV:   1    -0.135203910410E+03    0.11587E-01   -0.57146E+00   792   0.409E+00    0.814E-01
DAV:   2    -0.135314239888E+03   -0.11033E+00   -0.19300E-01   968   0.481E+00    0.761E+00
DAV:   3    -0.135186363326E+03    0.12788E+00   -0.17319E-01   916   0.457E+00    0.940E-01
DAV:   4    -0.135210781142E+03   -0.24418E-01   -0.29343E-02  1034   0.187E+00    0.178E+00
DAV:   5    -0.135209035701E+03    0.17454E-02   -0.28113E-02   912   0.165E+00    0.144E+00
DAV:   6    -0.135205852067E+03    0.31836E-02   -0.14412E-02   868   0.138E+00    0.855E-01
DAV:   7    -0.135207193253E+03   -0.13412E-02   -0.78075E-03   962   0.109E+00    0.904E-01
DAV:   8    -0.135207418598E+03   -0.22534E-03   -0.52426E-03   930   0.102E+00    0.827E-01
DAV:   9    -0.135205521596E+03    0.18970E-02   -0.23368E-03   880   0.808E-01    0.280E-01
DAV:  10    -0.135205726818E+03   -0.20522E-03   -0.59746E-04   826   0.320E-01    0.273E-01
DAV:  11    -0.135205776596E+03   -0.49778E-04   -0.47272E-04   552   0.265E-01
  67 F= -.13520578E+03 E0= -.13520232E+03  d E =0.966513E-02  mag=    20.0000
       N       E                     dE             d eps       ncg     rms          rms(c)
DAV:   1    -0.135209391638E+03   -0.36648E-02   -0.89124E-01   792   0.164E+00    0.341E-01
DAV:   2    -0.135230965422E+03   -0.21574E-01   -0.34874E-02  1002   0.216E+00    0.329E+00
DAV:   3    -0.135204767248E+03    0.26198E-01   -0.27054E-02   908   0.207E+00    0.394E-01
DAV:   4    -0.135210172035E+03   -0.54048E-02   -0.35944E-03  1026   0.768E-01    0.596E-01
DAV:   5    -0.135210278024E+03   -0.10599E-03   -0.33037E-03   876   0.652E-01    0.617E-01
DAV:   6    -0.135209601025E+03    0.67700E-03   -0.22156E-03   844   0.545E-01    0.330E-01
DAV:   7    -0.135209817583E+03   -0.21656E-03   -0.11483E-03   788   0.421E-01    0.329E-01
DAV:   8    -0.135209932301E+03   -0.11472E-03   -0.94111E-04   778   0.375E-01    0.337E-01
DAV:   9    -0.135209667220E+03    0.26508E-03   -0.69934E-04   600   0.291E-01    0.150E-01
DAV:  10    -0.135209690383E+03   -0.23163E-04   -0.14190E-04   496   0.144E-01
  68 F= -.13520969E+03 E0= -.13520628E+03  d E =-.391379E-02  mag=    20.0000
       N       E                     dE             d eps       ncg     rms          rms(c)
DAV:   1    -0.135215952225E+03   -0.62850E-02   -0.31731E+00   792   0.306E+00    0.576E-01
DAV:   2    -0.135260916162E+03   -0.44964E-01   -0.10149E-01  1048   0.308E+00    0.477E+00
DAV:   3    -0.135205524142E+03    0.55392E-01   -0.62359E-02   892   0.300E+00    0.558E-01
DAV:   4    -0.135220515052E+03   -0.14991E-01   -0.15495E-02  1050   0.138E+00    0.137E+00
DAV:   5    -0.135217233978E+03    0.32811E-02   -0.11111E-02   888   0.118E+00    0.750E-01
DAV:   6    -0.135217215709E+03    0.18269E-04   -0.48350E-03   912   0.878E-01    0.585E-01
DAV:   7    -0.135218801704E+03   -0.15860E-02   -0.51884E-03   954   0.883E-01    0.952E-01
DAV:   8    -0.135217258435E+03    0.15433E-02   -0.49131E-03   884   0.805E-01    0.587E-01
DAV:   9    -0.135216713374E+03    0.54506E-03   -0.14939E-03   866   0.491E-01    0.207E-01
DAV:  10    -0.135216900614E+03   -0.18724E-03   -0.35874E-04   546   0.244E-01    0.209E-01
DAV:  11    -0.135216898692E+03    0.19217E-05   -0.32615E-04   504   0.195E-01
  69 F= -.13521690E+03 E0= -.13521347E+03  d E =-.720831E-02  mag=    20.0000
       N       E                     dE             d eps       ncg     rms          rms(c)
DAV:   1    -0.135217921996E+03   -0.10214E-02   -0.82795E-02   804   0.535E-01    0.104E-01
DAV:   2    -0.135219182204E+03   -0.12602E-02   -0.32947E-03   960   0.592E-01    0.716E-01
DAV:   3    -0.135217800753E+03    0.13815E-02   -0.29197E-03   852   0.558E-01    0.240E-01
DAV:   4    -0.135217998930E+03   -0.19818E-03   -0.38285E-04   532   0.257E-01    0.129E-01
DAV:   5    -0.135218091464E+03   -0.92534E-04   -0.27528E-04   496   0.196E-01
  70 F= -.13521809E+03 E0= -.13521462E+03  d E =-.119277E-02  mag=    20.0000
       N       E                     dE             d eps       ncg     rms          rms(c)
DAV:   1    -0.135220219834E+03   -0.22209E-02   -0.38495E-01   792   0.109E+00    0.242E-01
DAV:   2    -0.135229442125E+03   -0.92223E-02   -0.20272E-02  1000   0.142E+00    0.216E+00
DAV:   3    -0.135217511598E+03    0.11931E-01   -0.15313E-02   916   0.136E+00    0.305E-01
DAV:   4    -0.135220504997E+03   -0.29934E-02   -0.22433E-03   906   0.571E-01    0.445E-01
DAV:   5    -0.135220757043E+03   -0.25205E-03   -0.21576E-03   874   0.499E-01    0.479E-01
DAV:   6    -0.135220268422E+03    0.48862E-03   -0.99832E-04   844   0.452E-01    0.239E-01
DAV:   7    -0.135220351250E+03   -0.82828E-04   -0.63674E-04   540   0.299E-01
  71 F= -.13522035E+03 E0= -.13521694E+03  d E =-.225979E-02  mag=    20.0000
       N       E                     dE             d eps       ncg     rms          rms(c)
DAV:   1    -0.135213783365E+03    0.64851E-02   -0.24095E+00   792   0.268E+00    0.552E-01
DAV:   2    -0.135260496513E+03   -0.46713E-01   -0.10142E-01   970   0.325E+00    0.493E+00
DAV:   3    -0.135204825117E+03    0.55671E-01   -0.84139E-02   884   0.310E+00    0.950E-01
DAV:   4    -0.135215038769E+03   -0.10214E-01   -0.10262E-02   990   0.130E+00    0.829E-01
DAV:   5    -0.135217024980E+03   -0.19862E-02   -0.95283E-03   920   0.109E+00    0.110E+00
DAV:   6    -0.135214605526E+03    0.24195E-02   -0.90119E-03   884   0.982E-01    0.642E-01
DAV:   7    -0.135214544183E+03    0.61343E-04   -0.32345E-03   890   0.719E-01    0.448E-01
DAV:   8    -0.135215639413E+03   -0.10952E-02   -0.30321E-03  1002   0.705E-01    0.756E-01
DAV:   9    -0.135214283361E+03    0.13561E-02   -0.22007E-03   920   0.597E-01    0.259E-01
DAV:  10    -0.135214390925E+03   -0.10756E-03   -0.29259E-04   544   0.231E-01    0.149E-01
DAV:  11    -0.135214463466E+03   -0.72542E-04   -0.21398E-04   512   0.176E-01
  72 F= -.13521446E+03 E0= -.13521107E+03  d E =0.588778E-02  mag=    20.0000
       N       E                     dE             d eps       ncg     rms          rms(c)
DAV:   1    -0.135217331624E+03   -0.29407E-02   -0.52381E-01   804   0.126E+00    0.261E-01
DAV:   2    -0.135229876552E+03   -0.12545E-01   -0.22370E-02  1018   0.163E+00    0.257E+00
DAV:   3    -0.135213788774E+03    0.16088E-01   -0.17357E-02   900   0.157E+00    0.269E-01
DAV:   4    -0.135217746774E+03   -0.39580E-02   -0.24966E-03   978   0.599E-01    0.469E-01
DAV:   5    -0.135217883799E+03   -0.13702E-03   -0.28549E-03   836   0.508E-01    0.536E-01
DAV:   6    -0.135217284681E+03    0.59912E-03   -0.15509E-03   788   0.429E-01    0.205E-01
DAV:   7    -0.135217632358E+03   -0.34768E-03   -0.67721E-04   690   0.341E-01    0.317E-01
DAV:   8    -0.135217592850E+03    0.39508E-04   -0.59090E-04   642   0.324E-01
  73 F= -.13521759E+03 E0= -.13521422E+03  d E =-.312938E-02  mag=    20.0000
       N       E                     dE             d eps       ncg     rms          rms(c)
DAV:   1    -0.135217711029E+03   -0.78671E-04   -0.58314E-03  1152   0.283E-01    0.920E-02
DAV:   2    -0.135220078932E+03   -0.23679E-02   -0.54076E-03   916   0.739E-01    0.108E+00
DAV:   3    -0.135217059182E+03    0.30198E-02   -0.49353E-03   892   0.695E-01    0.210E-01
DAV:   4    -0.135217693430E+03   -0.63425E-03   -0.20185E-04   530   0.191E-01    0.522E-02
DAV:   5    -0.135217742179E+03   -0.48749E-04   -0.70598E-05   512   0.902E-02
  74 F= -.13521774E+03 E0= -.13521431E+03  d E =-.149328E-03  mag=    20.0000
       N       E                     dE             d eps       ncg     rms          rms(c)
DAV:   1    -0.135218554925E+03   -0.86150E-03   -0.39480E-02   816   0.355E-01    0.109E-01
DAV:   2    -0.135221384950E+03   -0.28300E-02   -0.62622E-03   900   0.775E-01    0.124E+00
DAV:   3    -0.135217491478E+03    0.38935E-02   -0.58763E-03   876   0.743E-01    0.190E-01
DAV:   4    -0.135218496203E+03   -0.10047E-02   -0.25645E-04   524   0.234E-01    0.118E-01
DAV:   5    -0.135218584951E+03   -0.88748E-04   -0.16607E-04   522   0.170E-01
  75 F= -.13521858E+03 E0= -.13521519E+03  d E =-.842772E-03  mag=    20.0000
       N       E                     dE             d eps       ncg     rms          rms(c)
DAV:   1    -0.135219172643E+03   -0.67644E-03   -0.22807E-02   816   0.301E-01    0.106E-01
DAV:   2    -0.135221118433E+03   -0.19458E-02   -0.41023E-03   906   0.728E-01    0.934E-01
DAV:   3    -0.135218690414E+03    0.24280E-02   -0.38296E-03   900   0.674E-01    0.203E-01
DAV:   4    -0.135219154164E+03   -0.46375E-03   -0.32790E-04   540   0.225E-01    0.121E-01
DAV:   5    -0.135219180103E+03   -0.25939E-04   -0.17595E-04   498   0.148E-01
  76 F= -.13521918E+03 E0= -.13521576E+03  d E =-.595152E-03  mag=    20.0000
       N       E                     dE             d eps       ncg     rms          rms(c)
DAV:   1    -0.135219218373E+03   -0.64209E-04   -0.18433E-04   492   0.142E-01    0.130E-01
DAV:   2    -0.135223338830E+03   -0.41205E-02   -0.65356E-03   900   0.103E+00    0.139E+00
DAV:   3    -0.135218434017E+03    0.49048E-02   -0.72014E-03   908   0.939E-01    0.315E-01
DAV:   4    -0.135219124957E+03   -0.69094E-03   -0.57561E-04   628   0.270E-01    0.107E-01
DAV:   5    -0.135219185631E+03   -0.60674E-04   -0.11580E-04   498   0.116E-01
  77 F= -.13521919E+03 E0= -.13521577E+03  d E =-.552827E-05  mag=    20.0000
       N       E                     dE             d eps       ncg     rms          rms(c)
DAV:   1    -0.135219472361E+03   -0.34740E-03   -0.52373E-03   816   0.162E-01    0.768E-02
DAV:   2    -0.135220737223E+03   -0.12649E-02   -0.25998E-03   884   0.587E-01    0.755E-01
DAV:   3    -0.135219145986E+03    0.15912E-02   -0.22220E-03   836   0.528E-01    0.149E-01
DAV:   4    -0.135219453213E+03   -0.30723E-03   -0.11100E-04   490   0.159E-01    0.619E-02
DAV:   5    -0.135219464457E+03   -0.11244E-04   -0.52916E-05   496   0.687E-02
  78 F= -.13521946E+03 E0= -.13521603E+03  d E =-.278826E-03  mag=    20.0000
       N       E                     dE             d eps       ncg     rms          rms(c)
DAV:   1    -0.135219698865E+03   -0.24565E-03   -0.40008E-03   824   0.137E-01    0.688E-02
DAV:   2    -0.135220754069E+03   -0.10552E-02   -0.18502E-03   868   0.526E-01    0.697E-01
DAV:   3    -0.135219450359E+03    0.13037E-02   -0.19334E-03   812   0.480E-01    0.157E-01
DAV:   4    -0.135219674904E+03   -0.22454E-03   -0.14892E-04   492   0.138E-01    0.554E-02
DAV:   5    -0.135219693937E+03   -0.19034E-04   -0.40264E-05   496   0.723E-02
  79 F= -.13521969E+03 E0= -.13521627E+03  d E =-.229481E-03  mag=    20.0000
       N       E                     dE             d eps       ncg     rms          rms(c)
DAV:   1    -0.135219735237E+03   -0.60333E-04   -0.15735E-04   480   0.723E-02    0.681E-02
DAV:   2    -0.135220841580E+03   -0.11063E-02   -0.22773E-03   866   0.551E-01    0.708E-01
DAV:   3    -0.135219475075E+03    0.13665E-02   -0.18989E-03   804   0.487E-01    0.158E-01
DAV:   4    -0.135219718418E+03   -0.24334E-03   -0.15328E-04   484   0.148E-01    0.649E-02
DAV:   5    -0.135219731945E+03   -0.13526E-04   -0.48520E-05   496   0.659E-02
  80 F= -.13521973E+03 E0= -.13521630E+03  d E =-.380071E-04  mag=    20.0000
       N       E                     dE             d eps       ncg     rms          rms(c)
DAV:   1    -0.135220184770E+03   -0.46635E-03   -0.11394E-02   816   0.190E-01    0.564E-02
DAV:   2    -0.135220766240E+03   -0.58147E-03   -0.10205E-03   756   0.394E-01    0.508E-01
DAV:   3    -0.135220054215E+03    0.71202E-03   -0.92683E-04   684   0.361E-01    0.111E-01
DAV:   4    -0.135220175860E+03   -0.12164E-03   -0.77414E-05   484   0.113E-01    0.561E-02
DAV:   5    -0.135220192350E+03   -0.16490E-04   -0.55797E-05   474   0.821E-02
  81 F= -.13522019E+03 E0= -.13521678E+03  d E =-.460405E-03  mag=    20.0000
       N       E                     dE             d eps       ncg     rms          rms(c)
DAV:   1    -0.135220208017E+03   -0.32157E-04   -0.10079E-04   474   0.801E-02    0.696E-02
DAV:   2    -0.135221434287E+03   -0.12263E-02   -0.24495E-03   852   0.560E-01    0.764E-01
DAV:   3    -0.135219894039E+03    0.15402E-02   -0.21736E-03   820   0.508E-01    0.168E-01
DAV:   4    -0.135220184741E+03   -0.29070E-03   -0.16453E-04   492   0.153E-01    0.618E-02
DAV:   5    -0.135220203464E+03   -0.18724E-04   -0.46790E-05   490   0.662E-02
  82 F= -.13522020E+03 E0= -.13521677E+03  d E =-.111146E-04  mag=    20.0000
       N       E                     dE             d eps       ncg     rms          rms(c)
DAV:   1    -0.135220239407E+03   -0.54666E-04   -0.10763E-04   472   0.532E-02    0.467E-02
DAV:   2    -0.135220779921E+03   -0.54051E-03   -0.10273E-03   804   0.386E-01    0.492E-01
DAV:   3    -0.135220113552E+03    0.66637E-03   -0.88217E-04   644   0.336E-01    0.103E-01
DAV:   4    -0.135220231433E+03   -0.11788E-03   -0.71854E-05   484   0.957E-02    0.390E-02
DAV:   5    -0.135220240143E+03   -0.87097E-05   -0.20853E-05   480   0.465E-02
  83 F= -.13522024E+03 E0= -.13521681E+03  d E =-.366789E-04  mag=    20.0000
       N       E                     dE             d eps       ncg     rms          rms(c)
DAV:   1    -0.135220605470E+03   -0.37404E-03   -0.71873E-03   810   0.151E-01    0.415E-02
DAV:   2    -0.135220982281E+03   -0.37681E-03   -0.60441E-04   532   0.297E-01    0.435E-01
DAV:   3    -0.135220482500E+03    0.49978E-03   -0.55615E-04   508   0.277E-01    0.812E-02
DAV:   4    -0.135220601565E+03   -0.11907E-03   -0.58321E-05   468   0.910E-02    0.461E-02
DAV:   5    -0.135220611209E+03   -0.96438E-05   -0.39204E-05   474   0.646E-02
  84 F= -.13522061E+03 E0= -.13521719E+03  d E =-.371066E-03  mag=    20.0000
       N       E                     dE             d eps       ncg     rms          rms(c)
DAV:   1    -0.135220490522E+03    0.11104E-03   -0.59998E-04   532   0.763E-02    0.557E-02
DAV:   2    -0.135221440673E+03   -0.95015E-03   -0.17014E-03   820   0.481E-01    0.680E-01
DAV:   3    -0.135220224928E+03    0.12157E-02   -0.13334E-03   700   0.426E-01    0.121E-01
DAV:   4    -0.135220476935E+03   -0.25201E-03   -0.10089E-04   476   0.121E-01    0.419E-02
DAV:   5    -0.135220498920E+03   -0.21985E-04   -0.37975E-05   496   0.619E-02
  85 F= -.13522050E+03 E0= -.13521707E+03  d E =0.112289E-03  mag=    20.0000
       N       E                     dE             d eps       ncg     rms          rms(c)
DAV:   1    -0.135220835009E+03   -0.35807E-03   -0.66829E-03   816   0.151E-01    0.521E-02
DAV:   2    -0.135221623999E+03   -0.78899E-03   -0.11168E-03   706   0.417E-01    0.634E-01
DAV:   3    -0.135220555225E+03    0.10688E-02   -0.94047E-04   652   0.391E-01    0.783E-02
DAV:   4    -0.135220822208E+03   -0.26698E-03   -0.46312E-05   482   0.107E-01    0.360E-02
DAV:   5    -0.135220843415E+03   -0.21207E-04   -0.43940E-05   482   0.640E-02
  86 F= -.13522084E+03 E0= -.13521741E+03  d E =-.344496E-03  mag=    20.0000
       N       E                     dE             d eps       ncg     rms          rms(c)
DAV:   1    -0.135221509640E+03   -0.68743E-03   -0.36220E-02   792   0.361E-01    0.728E-02
DAV:   2    -0.135222447416E+03   -0.93778E-03   -0.20366E-03   836   0.463E-01    0.683E-01
DAV:   3    -0.135221200949E+03    0.12465E-02   -0.16516E-03   788   0.440E-01    0.119E-01
DAV:   4    -0.135221525923E+03   -0.32497E-03   -0.14343E-04   484   0.176E-01    0.105E-01
DAV:   5    -0.135221553596E+03   -0.27673E-04   -0.11206E-04   490   0.132E-01
  87 F= -.13522155E+03 E0= -.13521816E+03  d E =-.710181E-03  mag=    20.0000
       N       E                     dE             d eps       ncg     rms          rms(c)
DAV:   1    -0.135222686060E+03   -0.11601E-02   -0.88183E-02   798   0.533E-01    0.121E-01
DAV:   2    -0.135225548179E+03   -0.28621E-02   -0.43361E-03   892   0.800E-01    0.120E+00
DAV:   3    -0.135221778412E+03    0.37698E-02   -0.33636E-03   900   0.756E-01    0.163E-01
DAV:   4    -0.135222699477E+03   -0.92106E-03   -0.30160E-04   596   0.279E-01    0.147E-01
[...]
       N       E                     dE             d eps       ncg     rms          rms(c)
DAV:   1    -0.135249180985E+03   -0.19533E-03   -0.22246E-03   818   0.886E-02    0.226E-02
DAV:   2    -0.135249282807E+03   -0.10182E-03   -0.22591E-04   506   0.157E-01    0.228E-01
DAV:   3    -0.135249140890E+03    0.14192E-03   -0.21010E-04   492   0.146E-01    0.439E-02
DAV:   4    -0.135249180424E+03   -0.39534E-04   -0.16125E-05   454   0.543E-02
 192 F= -.13524918E+03 E0= -.13524567E+03  d E =-.100313E-03  mag=    20.0000
       N       E                     dE             d eps       ncg     rms          rms(c)
DAV:   1    -0.135249344440E+03   -0.20355E-03   -0.73173E-03   818   0.161E-01    0.450E-02
DAV:   2    -0.135249745684E+03   -0.40124E-03   -0.72068E-04   532   0.310E-01    0.454E-01
DAV:   3    -0.135249203827E+03    0.54186E-03   -0.69304E-04   508   0.291E-01    0.841E-02
DAV:   4    -0.135249339535E+03   -0.13571E-03   -0.67345E-05   476   0.999E-02    0.597E-02
DAV:   5    -0.135249345732E+03   -0.61974E-05   -0.47808E-05   444   0.713E-02
 193 F= -.13524935E+03 E0= -.13524584E+03  d E =-.165308E-03  mag=    20.0000
       N       E                     dE             d eps       ncg     rms          rms(c)
DAV:   1    -0.135249463781E+03   -0.12425E-03   -0.44908E-03   812   0.138E-01    0.531E-02
DAV:   2    -0.135250251541E+03   -0.78776E-03   -0.13359E-03   684   0.412E-01    0.641E-01
DAV:   3    -0.135249146521E+03    0.11050E-02   -0.11346E-03   652   0.389E-01    0.760E-02
DAV:   4    -0.135249445480E+03   -0.29896E-03   -0.48403E-05   476   0.110E-01    0.424E-02
DAV:   5    -0.135249469947E+03   -0.24468E-04   -0.28326E-05   482   0.707E-02
 194 F= -.13524947E+03 E0= -.13524595E+03  d E =-.124215E-03  mag=    20.0000
       N       E                     dE             d eps       ncg     rms          rms(c)
DAV:   1    -0.135249716192E+03   -0.27071E-03   -0.20053E-02   816   0.267E-01    0.731E-02
DAV:   2    -0.135250947337E+03   -0.12311E-02   -0.16014E-03   856   0.525E-01    0.783E-01
DAV:   3    -0.135249344084E+03    0.16033E-02   -0.13241E-03   804   0.498E-01    0.122E-01
DAV:   4    -0.135249698888E+03   -0.35480E-03   -0.11096E-04   476   0.154E-01    0.699E-02
DAV:   5    -0.135249740852E+03   -0.41964E-04   -0.10379E-04   498   0.118E-01
 195 F= -.13524974E+03 E0= -.13524621E+03  d E =-.270904E-03  mag=    20.0000
       N       E                     dE             d eps       ncg     rms          rms(c)
DAV:   1    -0.135249965440E+03   -0.26655E-03   -0.20859E-02   816   0.287E-01    0.945E-02
DAV:   2    -0.135252218821E+03   -0.22534E-02   -0.40652E-03   860   0.703E-01    0.109E+00
DAV:   3    -0.135249148587E+03    0.30702E-02   -0.36828E-03   852   0.671E-01    0.152E-01
DAV:   4    -0.135249916118E+03   -0.76753E-03   -0.17008E-04   500   0.203E-01    0.779E-02
DAV:   5    -0.135250006049E+03   -0.89932E-04   -0.16631E-04   514   0.141E-01
 196 F= -.13525001E+03 E0= -.13524648E+03  d E =-.265197E-03  mag=    20.0000
       N       E                     dE             d eps       ncg     rms          rms(c)
DAV:   1    -0.135249319443E+03    0.59667E-03   -0.11878E-01   798   0.666E-01    0.115E-01
DAV:   2    -0.135251486661E+03   -0.21672E-02   -0.56321E-03  1000   0.711E-01    0.102E+00
DAV:   3    -0.135248867913E+03    0.26187E-02   -0.45425E-03   906   0.688E-01    0.227E-01
DAV:   4    -0.135249379408E+03   -0.51150E-03   -0.45302E-04   652   0.272E-01    0.141E-01
DAV:   5    -0.135249459570E+03   -0.80162E-04   -0.30179E-04   514   0.192E-01
 197 F= -.13524946E+03 E0= -.13524596E+03  d E =0.546479E-03  mag=    20.0000
       N       E                     dE             d eps       ncg     rms          rms(c)
DAV:   1    -0.135250078277E+03   -0.69887E-03   -0.16447E-01   810   0.751E-01    0.172E-01
DAV:   2    -0.135258212196E+03   -0.81339E-02   -0.12381E-02   924   0.131E+00    0.205E+00
DAV:   3    -0.135247801978E+03    0.10410E-01   -0.10783E-02   916   0.124E+00    0.200E-01
DAV:   4    -0.135250100197E+03   -0.22982E-02   -0.68660E-04   834   0.338E-01    0.200E-01
DAV:   5    -0.135250247159E+03   -0.14696E-03   -0.57113E-04   540   0.247E-01    0.239E-01
DAV:   6    -0.135250141161E+03    0.10600E-03   -0.40909E-04   508   0.224E-01    0.133E-01
DAV:   7    -0.135250147964E+03   -0.68031E-05   -0.17695E-04   460   0.147E-01
 198 F= -.13525015E+03 E0= -.13524662E+03  d E =-.688394E-03  mag=    20.0000
       N       E                     dE             d eps       ncg     rms          rms(c)
DAV:   1    -0.135249960621E+03    0.18054E-03   -0.24425E-02   818   0.350E-01    0.171E-01
DAV:   2    -0.135256995230E+03   -0.70346E-02   -0.14601E-02   906   0.131E+00    0.183E+00
DAV:   3    -0.135248314719E+03    0.86805E-02   -0.12652E-02   900   0.124E+00    0.407E-01
DAV:   4    -0.135249813936E+03   -0.14992E-02   -0.81246E-04   756   0.348E-01    0.105E-01
DAV:   5    -0.135249932940E+03   -0.11900E-03   -0.20137E-04   514   0.146E-01    0.103E-01
DAV:   6    -0.135249941626E+03   -0.86858E-05   -0.13533E-04   458   0.121E-01
 199 F= -.13524994E+03 E0= -.13524645E+03  d E =0.206338E-03  mag=    20.0000
       N       E                     dE             d eps       ncg     rms          rms(c)
DAV:   1    -0.135250472037E+03   -0.53910E-03   -0.93198E-02   804   0.538E-01    0.104E-01
DAV:   2    -0.135252546440E+03   -0.20744E-02   -0.39272E-03   914   0.679E-01    0.101E+00
DAV:   3    -0.135249946582E+03    0.25999E-02   -0.31156E-03   860   0.636E-01    0.155E-01
DAV:   4    -0.135250502738E+03   -0.55616E-03   -0.33483E-04   532   0.225E-01    0.158E-01
DAV:   5    -0.135250542705E+03   -0.39967E-04   -0.30675E-04   508   0.193E-01
 200 F= -.13525054E+03 E0= -.13524702E+03  d E =-.601079E-03  mag=    20.0000
       N       E                     dE             d eps       ncg     rms          rms(c)
DAV:   1    -0.135250642622E+03   -0.13988E-03   -0.56190E-03  1130   0.226E-01    0.132E-01
DAV:   2    -0.135256341777E+03   -0.56992E-02   -0.12562E-02   892   0.108E+00    0.174E+00
DAV:   3    -0.135248620082E+03    0.77217E-02   -0.10261E-02   884   0.103E+00    0.188E-01
DAV:   4    -0.135250480728E+03   -0.18606E-02   -0.25758E-04   548   0.228E-01    0.984E-02
DAV:   5    -0.135250638691E+03   -0.15796E-03   -0.14993E-04   514   0.148E-01    0.116E-01
DAV:   6    -0.135250646231E+03   -0.75400E-05   -0.14377E-04   498   0.131E-01
 201 F= -.13525065E+03 E0= -.13524714E+03  d E =-.103525E-03  mag=    20.0000
       N       E                     dE             d eps       ncg     rms          rms(c)
DAV:   1    -0.135250724147E+03   -0.85456E-04   -0.36309E-03  1076   0.148E-01    0.607E-02
DAV:   2    -0.135251773782E+03   -0.10496E-02   -0.25553E-03   820   0.469E-01    0.745E-01
DAV:   3    -0.135250269423E+03    0.15044E-02   -0.20590E-03   756   0.440E-01    0.104E-01
DAV:   4    -0.135250693248E+03   -0.42383E-03   -0.82423E-05   492   0.114E-01    0.562E-02
DAV:   5    -0.135250733438E+03   -0.40190E-04   -0.42950E-05   504   0.806E-02
 202 F= -.13525073E+03 E0= -.13524721E+03  d E =-.872073E-04  mag=    20.0000
       N       E                     dE             d eps       ncg     rms          rms(c)
DAV:   1    -0.135250690220E+03    0.30279E-05   -0.43640E-03   824   0.159E-01    0.421E-02
DAV:   2    -0.135251081423E+03   -0.39120E-03   -0.76937E-04   564   0.321E-01    0.426E-01
DAV:   3    -0.135250584341E+03    0.49708E-03   -0.78018E-04   524   0.292E-01    0.108E-01
DAV:   4    -0.135250693046E+03   -0.10870E-03   -0.71700E-05   484   0.113E-01    0.464E-02
DAV:   5    -0.135250696724E+03   -0.36785E-05   -0.23397E-05   464   0.537E-02
 203 F= -.13525070E+03 E0= -.13524717E+03  d E =0.367134E-04  mag=    20.0000
       N       E                     dE             d eps       ncg     rms          rms(c)
DAV:   1    -0.135251041055E+03   -0.34801E-03   -0.38651E-02   804   0.341E-01    0.765E-02
DAV:   2    -0.135252213227E+03   -0.11722E-02   -0.24419E-03   836   0.504E-01    0.774E-01
DAV:   3    -0.135250688403E+03    0.15248E-02   -0.19918E-03   780   0.477E-01    0.111E-01
DAV:   4    -0.135251041562E+03   -0.35316E-03   -0.13655E-04   490   0.167E-01    0.100E-01
DAV:   5    -0.135251079487E+03   -0.37925E-04   -0.14636E-04   506   0.142E-01
 204 F= -.13525108E+03 E0= -.13524756E+03  d E =-.382763E-03  mag=    20.0000
       N       E                     dE             d eps       ncg     rms          rms(c)
DAV:   1    -0.135251433102E+03   -0.39154E-03   -0.50309E-02   804   0.412E-01    0.139E-01
DAV:   2    -0.135256507566E+03   -0.50745E-02   -0.97016E-03   916   0.103E+00    0.164E+00
DAV:   3    -0.135249785051E+03    0.67225E-02   -0.82283E-03   908   0.980E-01    0.175E-01
DAV:   4    -0.135251348912E+03   -0.15639E-02   -0.33453E-04   652   0.279E-01    0.138E-01
DAV:   5    -0.135251512556E+03   -0.16364E-03   -0.31042E-04   544   0.219E-01    0.231E-01
DAV:   6    -0.135251432288E+03    0.80268E-04   -0.34941E-04   524   0.209E-01
 205 F= -.13525143E+03 E0= -.13524792E+03  d E =-.352801E-03  mag=    20.0000
       N       E                     dE             d eps       ncg     rms          rms(c)
DAV:   1    -0.135251624455E+03   -0.11190E-03   -0.22225E-02   810   0.311E-01    0.818E-02
DAV:   2    -0.135252830700E+03   -0.12062E-02   -0.28405E-03   876   0.526E-01    0.778E-01
DAV:   3    -0.135251201517E+03    0.16292E-02   -0.23425E-03   812   0.495E-01    0.128E-01
DAV:   4    -0.135251635088E+03   -0.43357E-03   -0.17915E-04   500   0.175E-01    0.130E-01
DAV:   5    -0.135251660772E+03   -0.25684E-04   -0.12478E-04   522   0.133E-01
 206 F= -.13525166E+03 E0= -.13524814E+03  d E =-.228484E-03  mag=    20.0000
       N       E                     dE             d eps       ncg     rms          rms(c)
DAV:   1    -0.135251510855E+03    0.12423E-03   -0.71289E-03   890   0.205E-01    0.556E-02
DAV:   2    -0.135252541616E+03   -0.10308E-02   -0.13994E-03   738   0.461E-01    0.723E-01
DAV:   3    -0.135251171635E+03    0.13700E-02   -0.11809E-03   716   0.441E-01    0.811E-02
DAV:   4    -0.135251507446E+03   -0.33581E-03   -0.60587E-05   490   0.987E-02    0.402E-02
DAV:   5    -0.135251531703E+03   -0.24257E-04   -0.39738E-05   496   0.619E-02
 207 F= -.13525153E+03 E0= -.13524800E+03  d E =0.129070E-03  mag=    20.0000
       N       E                     dE             d eps       ncg     rms          rms(c)
DAV:   1    -0.135252936301E+03   -0.14289E-02   -0.19007E+00   804   0.242E+00    0.464E-01
DAV:   2    -0.135287070671E+03   -0.34134E-01   -0.67472E-02  1004   0.272E+00    0.416E+00
DAV:   3    -0.135246059850E+03    0.41011E-01   -0.49800E-02   884   0.258E+00    0.471E-01
DAV:   4    -0.135255004934E+03   -0.89451E-02   -0.75340E-03  1130   0.106E+00    0.991E-01
DAV:   5    -0.135253292862E+03    0.17121E-02   -0.53261E-03   882   0.900E-01    0.614E-01
DAV:   6    -0.135253174966E+03    0.11790E-03   -0.35885E-03   898   0.728E-01    0.497E-01
DAV:   7    -0.135254375557E+03   -0.12006E-02   -0.47650E-03   940   0.744E-01    0.853E-01
DAV:   8    -0.135253113492E+03    0.12621E-02   -0.41703E-03   900   0.679E-01    0.485E-01
DAV:   9    -0.135252843136E+03    0.27036E-03   -0.11844E-03   792   0.399E-01    0.167E-01
DAV:  10    -0.135252942950E+03   -0.99814E-04   -0.27972E-04   522   0.198E-01
 208 F= -.13525294E+03 E0= -.13524942E+03  d E =-.141125E-02  mag=    20.0000
       N       E                     dE             d eps       ncg     rms          rms(c)
DAV:   1    -0.135252178711E+03    0.66443E-03   -0.89895E-01   804   0.167E+00    0.341E-01
DAV:   2    -0.135272621136E+03   -0.20442E-01   -0.32529E-02   954   0.213E+00    0.321E+00
DAV:   3    -0.135248305400E+03    0.24316E-01   -0.29117E-02   916   0.201E+00    0.461E-01
DAV:   4    -0.135252703471E+03   -0.43981E-02   -0.37506E-03  1114   0.745E-01    0.571E-01
DAV:   5    -0.135252885708E+03   -0.18224E-03   -0.33533E-03   908   0.646E-01    0.617E-01
DAV:   6    -0.135252173914E+03    0.71179E-03   -0.23471E-03   876   0.583E-01    0.354E-01
DAV:   7    -0.135252456155E+03   -0.28224E-03   -0.15200E-03   866   0.473E-01    0.408E-01
DAV:   8    -0.135252493212E+03   -0.37057E-04   -0.14849E-03   840   0.433E-01    0.373E-01
DAV:   9    -0.135252181608E+03    0.31160E-03   -0.75913E-04   696   0.331E-01    0.174E-01
DAV:  10    -0.135252197226E+03   -0.15617E-04   -0.16295E-04   504   0.163E-01
 209 F= -.13525220E+03 E0= -.13524868E+03  d E =0.745725E-03  mag=    20.0000
       N       E                     dE             d eps       ncg     rms          rms(c)
DAV:   1    -0.135252285363E+03   -0.10375E-03   -0.31393E-03  1008   0.162E-01    0.127E-01
DAV:   2    -0.135256909075E+03   -0.46237E-02   -0.78769E-03   914   0.996E-01    0.151E+00
DAV:   3    -0.135251389119E+03    0.55200E-02   -0.65623E-03   882   0.940E-01    0.220E-01
DAV:   4    -0.135252191087E+03   -0.80197E-03   -0.20359E-04   516   0.209E-01    0.783E-02
DAV:   5    -0.135252262395E+03   -0.71308E-04   -0.11589E-04   512   0.984E-02
 210 F= -.13525226E+03 E0= -.13524875E+03  d E =-.651695E-04  mag=    20.0000
       N       E                     dE             d eps       ncg     rms          rms(c)
DAV:   1    -0.135252363604E+03   -0.17252E-03   -0.47452E-03   826   0.157E-01    0.740E-02
DAV:   2    -0.135253653970E+03   -0.12904E-02   -0.20659E-03   864   0.585E-01    0.778E-01
DAV:   3    -0.135252085174E+03    0.15688E-02   -0.19625E-03   810   0.528E-01    0.197E-01
DAV:   4    -0.135252335740E+03   -0.25057E-03   -0.21070E-04   490   0.182E-01    0.702E-02
DAV:   5    -0.135252351793E+03   -0.16053E-04   -0.57813E-05   496   0.778E-02
 211 F= -.13525235E+03 E0= -.13524885E+03  d E =-.893979E-04  mag=    20.0000
       N       E                     dE             d eps       ncg     rms          rms(c)
DAV:   1    -0.135252700292E+03   -0.36455E-03   -0.58948E-02   810   0.450E-01    0.114E-01
DAV:   2    -0.135255177823E+03   -0.24775E-02   -0.60445E-03   888   0.735E-01    0.113E+00
DAV:   3    -0.135252152890E+03    0.30249E-02   -0.49007E-03   874   0.700E-01    0.187E-01
DAV:   4    -0.135252672159E+03   -0.51927E-03   -0.27452E-04   610   0.255E-01    0.129E-01
DAV:   5    -0.135252747889E+03   -0.75731E-04   -0.24896E-04   544   0.198E-01
 212 F= -.13525275E+03 E0= -.13524929E+03  d E =-.396096E-03  mag=    20.0000
       N       E                     dE             d eps       ncg     rms          rms(c)
DAV:   1    -0.135252755767E+03   -0.83608E-04   -0.31979E-03  1168   0.212E-01    0.110E-01
DAV:   2    -0.135255957478E+03   -0.32017E-02   -0.56007E-03   920   0.848E-01    0.127E+00
DAV:   3    -0.135251840021E+03    0.41175E-02   -0.45863E-03   890   0.793E-01    0.187E-01
DAV:   4    -0.135252677337E+03   -0.83732E-03   -0.26675E-04   516   0.197E-01    0.907E-02
DAV:   5    -0.135252747398E+03   -0.70060E-04   -0.11343E-04   520   0.115E-01
 213 F= -.13525275E+03 E0= -.13524926E+03  d E =0.491818E-06  mag=    20.0000
       N       E                     dE             d eps       ncg     rms          rms(c)
DAV:   1    -0.135252849417E+03   -0.17208E-03   -0.55847E-03   848   0.181E-01    0.103E-01
DAV:   2    -0.135255654463E+03   -0.28050E-02   -0.38608E-03   884   0.819E-01    0.117E+00
DAV:   3    -0.135252288568E+03    0.33659E-02   -0.37872E-03   876   0.755E-01    0.243E-01
DAV:   4    -0.135252803009E+03   -0.51444E-03   -0.27784E-04   540   0.241E-01    0.790E-02
DAV:   5    -0.135252830916E+03   -0.27906E-04   -0.92577E-05   512   0.107E-01
 214 F= -.13525283E+03 E0= -.13524933E+03  d E =-.835180E-04  mag=    20.0000
       N       E                     dE             d eps       ncg     rms          rms(c)
DAV:   1    -0.135252970320E+03   -0.16731E-03   -0.97360E-03   810   0.216E-01    0.112E-01
DAV:   2    -0.135256384009E+03   -0.34137E-02   -0.46107E-03   896   0.897E-01    0.130E+00
DAV:   3    -0.135252212013E+03    0.41720E-02   -0.48917E-03   884   0.836E-01    0.256E-01
DAV:   4    -0.135252887270E+03   -0.67526E-03   -0.31725E-04   540   0.249E-01    0.770E-02
DAV:   5    -0.135252952342E+03   -0.65073E-04   -0.11317E-04   506   0.121E-01
 215 F= -.13525295E+03 E0= -.13524943E+03  d E =-.121427E-03  mag=    20.0000
       N       E                     dE             d eps       ncg     rms          rms(c)
DAV:   1    -0.135253164577E+03   -0.27731E-03   -0.23952E-02   804   0.317E-01    0.141E-01
DAV:   2    -0.135258467820E+03   -0.53032E-02   -0.88774E-03   884   0.110E+00    0.163E+00
DAV:   3    -0.135252057411E+03    0.64104E-02   -0.78790E-03   884   0.103E+00    0.288E-01
DAV:   4    -0.135253061073E+03   -0.10037E-02   -0.44837E-04   700   0.303E-01    0.985E-02
DAV:   5    -0.135253158538E+03   -0.97464E-04   -0.23230E-04   524   0.170E-01
 216 F= -.13525316E+03 E0= -.13524965E+03  d E =-.206195E-03  mag=    20.0000
       N       E                     dE             d eps       ncg     rms          rms(c)
DAV:   1    -0.135252819724E+03    0.24135E-03   -0.66908E-02   804   0.516E-01    0.173E-01
DAV:   2    -0.135260681014E+03   -0.78613E-02   -0.10751E-02   914   0.136E+00    0.195E+00
DAV:   3    -0.135251036049E+03    0.96450E-02   -0.10688E-02   906   0.127E+00    0.400E-01
DAV:   4    -0.135252671778E+03   -0.16357E-02   -0.84908E-04   780   0.380E-01    0.124E-01
DAV:   5    -0.135252860189E+03   -0.18841E-03   -0.35861E-04   524   0.203E-01    0.172E-01
DAV:   6    -0.135252866103E+03   -0.59142E-05   -0.29116E-04   506   0.182E-01
 217 F= -.13525287E+03 E0= -.13524931E+03  d E =0.292434E-03  mag=    20.0000
       N       E                     dE             d eps       ncg     rms          rms(c)
DAV:   1    -0.135252869745E+03   -0.95562E-05   -0.33816E-03  1132   0.198E-01    0.556E-02
DAV:   2    -0.135253656337E+03   -0.78659E-03   -0.19100E-03   826   0.436E-01    0.606E-01
DAV:   3    -0.135252630344E+03    0.10260E-02   -0.14949E-03   748   0.403E-01    0.104E-01
DAV:   4    -0.135252862609E+03   -0.23226E-03   -0.67080E-05   484   0.913E-02    0.281E-02
DAV:   5    -0.135252887422E+03   -0.24813E-04   -0.23759E-05   496   0.465E-02
 218 F= -.13525289E+03 E0= -.13524938E+03  d E =-.213189E-04  mag=    20.0000
       N       E                     dE             d eps       ncg     rms          rms(c)
DAV:   1    -0.135252859710E+03    0.28990E-05   -0.72602E-04   784   0.689E-02    0.415E-02
DAV:   2    -0.135253355917E+03   -0.49621E-03   -0.90956E-04   596   0.340E-01    0.495E-01
DAV:   3    -0.135252689466E+03    0.66645E-03   -0.83853E-04   532   0.313E-01    0.718E-02
DAV:   4    -0.135252852420E+03   -0.16295E-03   -0.37646E-05   478   0.752E-02    0.374E-02
DAV:   5    -0.135252859385E+03   -0.69648E-05   -0.12352E-05   480   0.397E-02
 219 F= -.13525286E+03 E0= -.13524934E+03  d E =0.280374E-04  mag=    20.0000
       N       E                     dE             d eps       ncg     rms          rms(c)
DAV:   1    -0.135252903419E+03   -0.50999E-04   -0.11961E-03   818   0.719E-02    0.323E-02
DAV:   2    -0.135253185600E+03   -0.28218E-03   -0.61131E-04   506   0.258E-01    0.378E-01
DAV:   3    -0.135252793963E+03    0.39164E-03   -0.52797E-04   492   0.242E-01    0.730E-02
DAV:   4    -0.135252894800E+03   -0.10084E-03   -0.33296E-05   468   0.671E-02    0.237E-02
DAV:   5    -0.135252902987E+03   -0.81870E-05   -0.89742E-06   466   0.334E-02
 220 F= -.13525290E+03 E0= -.13524939E+03  d E =-.436019E-04  mag=    20.0000
       N       E                     dE             d eps       ncg     rms          rms(c)
DAV:   1    -0.135252900111E+03   -0.53107E-05   -0.42000E-04   720   0.550E-02    0.296E-02
DAV:   2    -0.135253150600E+03   -0.25049E-03   -0.33739E-04   514   0.248E-01    0.348E-01
DAV:   3    -0.135252817782E+03    0.33282E-03   -0.31074E-04   500   0.226E-01    0.622E-02
DAV:   4    -0.135252896508E+03   -0.78725E-04   -0.18810E-05   470   0.611E-02
 221 F= -.13525290E+03 E0= -.13524936E+03  d E =0.647926E-05  mag=    20.0000
