<?xml version="1.0" encoding="ISO-8859-1"?>
<modeling>
 <generator>
  <i name="program" type="string">vasp </i>
  <i name="version" type="string">6.3.2  </i>
  <i name="subversion" type="string">27Jun22 (build Nov 14 2022 18:12:39) complex                          parallel </i>
  <i name="platform" type="string">Saga </i>
  <i name="date" type="string">2023 01 30 </i>
  <i name="time" type="string">16:46:25 </i>
 </generator>
 <incar>
  <i type="int" name="ISTART">     0</i>
  <i type="string" name="PREC">Accurate</i>
  <i type="int" name="ISPIN">     2</i>
  <i type="int" name="NELM">   120</i>
  <i type="int" name="IBRION">     1</i>
  <i name="EDIFFG">     -0.02000000</i>
  <i type="int" name="NSW">   300</i>
  <i type="int" name="ISYM">    -1</i>
  <i name="ENCUT">    400.00000000</i>
  <i type="int" name="ISMEAR">     0</i>
  <i name="SIGMA">      0.02000000</i>
  <i type="logical" name="LWAVE"> F  </i>
  <i type="logical" name="LCHARG"> F  </i>
  <i type="string" name="GGA">PE</i>
 </incar>
 <primitive_cell>
  <structure name="primitive_cell" >
   <crystal>
    <varray name="basis" >
     <v>      16.00000000       0.00000000       0.00000000 </v>
     <v>       0.00000000      16.00000000       0.00000000 </v>
     <v>       0.00000000       0.00000000      16.00000000 </v>
    </varray>
    <i name="volume">   4096.00000000 </i>
    <varray name="rec_basis" >
     <v>       0.06250000       0.00000000       0.00000000 </v>
     <v>       0.00000000       0.06250000       0.00000000 </v>
     <v>       0.00000000       0.00000000       0.06250000 </v>
    </varray>
   </crystal>
   <varray name="positions" >
    <v>       0.24204812       0.46574375       0.39358062 </v>
    <v>       0.47664750       0.46996062       0.67724500 </v>
    <v>       0.56549250       0.67648500       0.38362437 </v>
    <v>       0.57311312       0.26554500       0.38499375 </v>
    <v>       0.33768562       0.46766813       0.62356500 </v>
    <v>       0.65978875       0.62061375       0.49154062 </v>
    <v>       0.66524938       0.32527375       0.49257937 </v>
    <v>       0.32675000       0.57369062       0.34481625 </v>
    <v>       0.33114375       0.36122812       0.34507188 </v>
    <v>       0.40257313       0.46809063       0.25190625 </v>
    <v>       0.53750625       0.26414000       0.53140812 </v>
    <v>       0.53031438       0.67711438       0.53047625 </v>
    <v>       0.65811125       0.54895063       0.35866813 </v>
    <v>       0.65967312       0.39560375       0.35880750 </v>
    <v>       0.42268937       0.59525687       0.59476000 </v>
    <v>       0.42683313       0.34299625       0.59471812 </v>
    <v>       0.46809750       0.59455000       0.30764875 </v>
    <v>       0.47352250       0.34516125       0.30878812 </v>
    <v>       0.42711875       0.30087688       0.44386313 </v>
    <v>       0.42129875       0.63628937       0.44334312 </v>
    <v>       0.31992125       0.54301125       0.49424562 </v>
    <v>       0.32328812       0.39197125       0.49426000 </v>
    <v>       0.54435625       0.47145750       0.30680125 </v>
    <v>       0.57267187       0.54664000       0.59011250 </v>
    <v>       0.57482875       0.39594625       0.59044750 </v>
    <v>       0.66008312       0.47271500       0.48947438 </v>
    <v>       0.45226000       0.46980438       0.53473625 </v>
    <v>       0.53660750       0.54776313       0.44005500 </v>
    <v>       0.53881625       0.39369375       0.44078812 </v>
    <v>       0.41230875       0.46914563       0.39380312 </v>
    <v>       0.55900000       0.63396687       0.71141687 </v>
    <v>       0.54606125       0.59564938       0.73393875 </v>
   </varray>
  </structure>
  <varray name="primitive_index" >
   <v type="int" >        1 </v>
   <v type="int" >        2 </v>
   <v type="int" >        3 </v>
   <v type="int" >        4 </v>
   <v type="int" >        5 </v>
   <v type="int" >        6 </v>
   <v type="int" >        7 </v>
   <v type="int" >        8 </v>
   <v type="int" >        9 </v>
   <v type="int" >       10 </v>
   <v type="int" >       11 </v>
   <v type="int" >       12 </v>
   <v type="int" >       13 </v>
   <v type="int" >       14 </v>
   <v type="int" >       15 </v>
   <v type="int" >       16 </v>
   <v type="int" >       17 </v>
   <v type="int" >       18 </v>
   <v type="int" >       19 </v>
   <v type="int" >       20 </v>
   <v type="int" >       21 </v>
   <v type="int" >       22 </v>
   <v type="int" >       23 </v>
   <v type="int" >       24 </v>
   <v type="int" >       25 </v>
   <v type="int" >       26 </v>
   <v type="int" >       27 </v>
   <v type="int" >       28 </v>
   <v type="int" >       29 </v>
   <v type="int" >       30 </v>
   <v type="int" >       31 </v>
   <v type="int" >       32 </v>
  </varray>
 </primitive_cell>
 <kpoints>
  <generation param="Monkhorst-Pack">
   <v type="int" name="divisions">       1        1        1 </v>
   <v name="usershift">      0.00000000       0.00000000       0.00000000 </v>
   <v name="genvec1">      1.00000000       0.00000000       0.00000000 </v>
   <v name="genvec2">      0.00000000       1.00000000       0.00000000 </v>
   <v name="genvec3">      0.00000000       0.00000000       1.00000000 </v>
   <v name="shift">      0.00000000       0.00000000       0.00000000 </v>
  </generation>
  <varray name="kpointlist" >
   <v>       0.00000000       0.00000000       0.00000000 </v>
  </varray>
  <varray name="weights" >
   <v>       1.00000000 </v>
  </varray>
 </kpoints>
 <parameters>
  <separator name="general" >
   <i type="string" name="SYSTEM">unknown system</i>
   <i type="logical" name="LCOMPAT"> F  </i>
  </separator>
  <separator name="electronic" >
   <i type="string" name="PREC">accura</i>
   <i name="ENMAX">    400.00000000</i>
   <i name="ENAUG">    544.56500000</i>
   <i name="EDIFF">      0.00010000</i>
   <i type="int" name="IALGO">    38</i>
   <i type="int" name="IWAVPR">    11</i>
   <i type="int" name="NBANDS">   198</i>
   <i type="int" name="NBANDSLOW">    -1</i>
   <i type="int" name="NBANDSHIGH">    -1</i>
   <i name="NELECT">    302.00000000</i>
   <i type="int" name="TURBO">     0</i>
   <i type="int" name="IRESTART">     0</i>
   <i type="int" name="NREBOOT">     0</i>
   <i type="int" name="NMIN">     0</i>
   <i name="EREF">      0.00000000</i>
   <separator name="electronic smearing" >
    <i type="int" name="ISMEAR">     0</i>
    <i name="SIGMA">      0.02000000</i>
    <i name="KSPACING">      0.50000000</i>
    <i type="logical" name="KGAMMA"> T  </i>
    <i type="logical" name="KBLOWUP"> F  </i>
   </separator>
   <separator name="electronic projectors" >
    <i type="logical" name="LREAL"> F  </i>
    <v name="ROPT">      0.00000000      0.00000000</v>
    <i type="int" name="LMAXPAW">  -100</i>
    <i type="int" name="LMAXMIX">     2</i>
    <i type="logical" name="NLSPLINE"> F  </i>
   </separator>
   <separator name="electronic startup" >
    <i type="int" name="ISTART">     0</i>
    <i type="int" name="ICHARG">     2</i>
    <i type="int" name="INIWAV">     1</i>
   </separator>
   <separator name="electronic spin" >
    <i type="int" name="ISPIN">     2</i>
    <i type="logical" name="LNONCOLLINEAR"> F  </i>
    <v name="MAGMOM">      1.00000000      1.00000000      1.00000000      1.00000000      1.00000000      1.00000000      1.00000000      1.00000000      1.00000000      1.00000000      1.00000000      1.00000000      1.00000000      1.00000000      1.00000000      1.00000000      1.00000000      1.00000000      1.00000000      1.00000000
      1.00000000      1.00000000      1.00000000      1.00000000      1.00000000      1.00000000      1.00000000      1.00000000      1.00000000      1.00000000      1.00000000      1.00000000</v>
    <i name="NUPDOWN">     -1.00000000</i>
    <i type="logical" name="LSORBIT"> F  </i>
    <v name="SAXIS">      0.00000000      0.00000000      1.00000000</v>
    <i type="logical" name="LSPIRAL"> F  </i>
    <v name="QSPIRAL">      0.00000000      0.00000000      0.00000000</v>
    <i type="logical" name="LZEROZ"> F  </i>
   </separator>
   <separator name="electronic exchange-correlation" >
    <i type="logical" name="LASPH"> F  </i>
    <i type="logical" name="LMETAGGA"> F  </i>
   </separator>
   <separator name="electronic convergence" >
    <i type="int" name="NELM">   120</i>
    <i type="int" name="NELMDL">    -5</i>
    <i type="int" name="NELMIN">     2</i>
    <i name="ENINI">    400.00000000</i>
    <separator name="electronic convergence detail" >
     <i type="logical" name="LDIAG"> T  </i>
     <i type="logical" name="LSUBROT"> F  </i>
     <i name="WEIMIN">      0.00100000</i>
     <i name="EBREAK">      0.00000013</i>
     <i name="DEPER">      0.30000000</i>
     <i type="int" name="NRMM">     4</i>
     <i name="TIME">      0.40000000</i>
    </separator>
   </separator>
   <separator name="electronic mixer" >
    <i name="AMIX">      0.40000000</i>
    <i name="BMIX">      1.00000000</i>
    <i name="AMIN">      0.10000000</i>
    <i name="AMIX_MAG">      1.60000000</i>
    <i name="BMIX_MAG">      1.00000000</i>
    <separator name="electronic mixer details" >
     <i type="int" name="IMIX">     4</i>
     <i type="logical" name="MIXFIRST"> F  </i>
     <i type="int" name="MAXMIX">   -45</i>
     <i name="WC">    100.00000000</i>
     <i type="int" name="INIMIX">     1</i>
     <i type="int" name="MIXPRE">     1</i>
     <i type="int" name="MREMOVE">     5</i>
    </separator>
   </separator>
   <separator name="electronic dipolcorrection" >
    <i type="logical" name="LDIPOL"> F  </i>
    <i type="logical" name="LMONO"> F  </i>
    <i type="int" name="IDIPOL">     0</i>
    <i name="EPSILON">      1.00000000</i>
    <v name="DIPOL">   -100.00000000   -100.00000000   -100.00000000</v>
    <i name="EFIELD">      0.00000000</i>
   </separator>
  </separator>
  <separator name="grids" >
   <i type="int" name="NGX">   108</i>
   <i type="int" name="NGY">   108</i>
   <i type="int" name="NGZ">   108</i>
   <i type="int" name="NGXF">   216</i>
   <i type="int" name="NGYF">   216</i>
   <i type="int" name="NGZF">   216</i>
   <i type="logical" name="ADDGRID"> F  </i>
  </separator>
  <separator name="ionic" >
   <i type="int" name="NSW">   300</i>
   <i type="int" name="IBRION">     1</i>
   <i type="int" name="MDALGO">     0</i>
   <i type="int" name="ISIF">     2</i>
   <i name="PSTRESS">      0.00000000</i>
   <i name="EDIFFG">     -0.02000000</i>
   <i type="int" name="NFREE">     0</i>
   <i name="POTIM">      0.50000000</i>
   <i name="SMASS">     -3.00000000</i>
   <i name="SCALEE">      1.00000000</i>
  </separator>
  <separator name="ionic md" >
   <i name="TEBEG">      0.00010000</i>
   <i name="TEEND">      0.00010000</i>
   <i type="int" name="NBLOCK">     1</i>
   <i type="int" name="KBLOCK">   300</i>
   <i type="int" name="NPACO">   256</i>
   <i name="APACO">     10.00000000</i>
  </separator>
  <separator name="symmetry" >
   <i type="int" name="ISYM">    -1</i>
   <i name="SYMPREC">      0.00001000</i>
  </separator>
  <separator name="dos" >
   <i type="int" name="LORBIT">     0</i>
   <v name="RWIGS">     -1.00000000     -1.00000000</v>
   <i type="int" name="NEDOS">   301</i>
   <i name="EMIN">     10.00000000</i>
   <i name="EMAX">    -10.00000000</i>
   <i name="EFERMI">      0.00000000</i>
  </separator>
  <separator name="writing" >
   <i type="int" name="NWRITE">     2</i>
   <i type="logical" name="LWAVE"> F  </i>
   <i type="logical" name="LDOWNSAMPLE"> F  </i>
   <i type="logical" name="LCHARG"> F  </i>
   <i type="logical" name="LPARD"> F  </i>
   <i type="logical" name="LVTOT"> F  </i>
   <i type="logical" name="LVHAR"> F  </i>
   <i type="logical" name="LELF"> F  </i>
   <i type="logical" name="LOPTICS"> F  </i>
   <v name="STM">      0.00000000      0.00000000      0.00000000      0.00000000      0.00000000      0.00000000      0.00000000</v>
  </separator>
  <separator name="performance" >
   <i type="int" name="NPAR">     2</i>
   <i type="int" name="NSIM">     4</i>
   <i type="int" name="NBLK">    -1</i>
   <i type="logical" name="LPLANE"> T  </i>
   <i type="logical" name="LSCALAPACK"> T  </i>
   <i type="logical" name="LSCAAWARE"> F  </i>
   <i type="logical" name="LSCALU"> F  </i>
   <i type="logical" name="LASYNC"> F  </i>
   <i type="logical" name="LORBITALREAL"> F  </i>
  </separator>
  <separator name="miscellaneous" >
   <i type="int" name="IDIOT">     3</i>
   <i type="int" name="PHON_NSTRUCT">    -1</i>
   <i type="logical" name="LMUSIC"> F  </i>
   <v name="POMASS">     58.69000000      1.00000000</v>
   <v name="DARWINR">      0.00000000      0.00000000</v>
   <v name="DARWINV">      1.00000000      1.00000000</v>
   <i type="logical" name="LCORR"> T  </i>
  </separator>
  <i type="logical" name="GGA_COMPAT"> T  </i>
  <i type="logical" name="LBERRY"> F  </i>
  <i type="int" name="ICORELEVEL">     0</i>
  <i type="logical" name="LDAU"> F  </i>
  <i type="int" name="I_CONSTRAINED_M">     0</i>
  <separator name="electronic exchange-correlation" >
   <i type="string" name="GGA">PE</i>
   <i type="int" name="VOSKOWN">     0</i>
   <i type="logical" name="LHFCALC"> F  </i>
   <i type="string" name="PRECFOCK"></i>
   <i type="logical" name="LSYMGRAD"> F  </i>
   <i type="logical" name="LHFONE"> F  </i>
   <i type="logical" name="LRHFCALC"> F  </i>
   <i type="logical" name="LTHOMAS"> F  </i>
   <i type="logical" name="LMODELHF"> F  </i>
   <i type="logical" name="LFOCKACE"> F  </i>
   <i name="ENCUT4O">     -1.00000000</i>
   <i type="int" name="EXXOEP">     0</i>
   <i type="int" name="FOURORBIT">     0</i>
   <i name="AEXX">      0.00000000</i>
   <i name="HFALPHA">      0.00000000</i>
   <i name="MCALPHA">      0.00000000</i>
   <i name="ALDAX">      1.00000000</i>
   <i name="AGGAX">      1.00000000</i>
   <i name="ALDAC">      1.00000000</i>
   <i name="AGGAC">      1.00000000</i>
   <i type="int" name="NKREDX">     1</i>
   <i type="int" name="NKREDY">     1</i>
   <i type="int" name="NKREDZ">     1</i>
   <i type="logical" name="SHIFTRED"> F  </i>
   <i type="logical" name="ODDONLY"> F  </i>
   <i type="logical" name="EVENONLY"> F  </i>
   <i type="int" name="LMAXFOCK">     0</i>
   <i type="int" name="NMAXFOCKAE">     0</i>
   <i type="logical" name="LFOCKAEDFT"> F  </i>
   <i name="HFSCREEN">      0.00000000</i>
   <i name="HFSCREENC">      0.00000000</i>
   <i type="int" name="NBANDSGWLOW">     0</i>
  </separator>
  <separator name="vdW DFT" >
   <i type="logical" name="LUSE_VDW"> F  </i>
   <i name="Zab_VDW">     -0.84910000</i>
   <i name="PARAM1">      0.12340000</i>
   <i name="PARAM2">      1.00000000</i>
   <i name="PARAM3">      0.00000000</i>
  </separator>
  <separator name="model GW" >
   <i type="int" name="MODEL_GW">     0</i>
   <i name="MODEL_EPS0">     76.80000000</i>
   <i name="MODEL_ALPHA">      1.00000000</i>
  </separator>
  <separator name="linear response parameters" >
   <i type="logical" name="LEPSILON"> F  </i>
   <i type="logical" name="LRPA"> F  </i>
   <i type="logical" name="LNABLA"> F  </i>
   <i type="logical" name="LVEL"> F  </i>
   <i name="CSHIFT">      0.10000000</i>
   <i name="OMEGAMAX">     -1.00000000</i>
   <i name="DEG_THRESHOLD">      0.00200000</i>
   <i name="RTIME">     -0.10000000</i>
   <i name="WPLASMAI">      0.00000000</i>
   <v name="DFIELD">      0.00000000      0.00000000      0.00000000</v>
   <v name="WPLASMA">      0.00000000      0.00000000      0.00000000      0.00000000      0.00000000      0.00000000      0.00000000      0.00000000      0.00000000</v>
  </separator>
  <separator name="orbital magnetization" >
   <i type="logical" name="NUCIND"> F  </i>
   <v name="MAGPOS">      0.00000000      0.00000000      0.00000000</v>
   <i type="logical" name="LNICSALL"> T  </i>
   <i type="logical" name="ORBITALMAG"> F  </i>
   <i type="logical" name="LMAGBLOCH"> F  </i>
   <i type="logical" name="LCHIMAG"> F  </i>
   <i type="logical" name="LGAUGE"> T  </i>
   <i type="int" name="MAGATOM">     0</i>
   <v name="MAGDIPOL">      0.00000000      0.00000000      0.00000000</v>
   <v name="AVECCONST">      0.00000000      0.00000000      0.00000000</v>
  </separator>
  <separator name="response functions" >
   <i type="logical" name="LFINITE_TEMPERATURE"> F  </i>
   <i type="logical" name="LADDER"> F  </i>
   <i type="logical" name="LRPAFORCE"> F  </i>
   <i type="logical" name="LFXC"> F  </i>
   <i type="logical" name="LHARTREE"> T  </i>
   <i type="int" name="IBSE">     0</i>
   <v type="int" name="KPOINT">    -1     0     0     0</v>
   <i type="logical" name="LTCTC"> F  </i>
   <i type="logical" name="LTCTE"> F  </i>
   <i type="logical" name="LTETE"> F  </i>
   <i type="logical" name="LTRIPLET"> F  </i>
   <i type="logical" name="LFXCEPS"> F  </i>
   <i type="logical" name="LFXHEG"> F  </i>
   <i type="int" name="NATURALO">     2</i>
   <i type="logical" name="LHOLEGF"> F  </i>
   <i type="logical" name="L2ORDER"> F  </i>
   <i type="logical" name="LDMP1"> F  </i>
   <i type="logical" name="LMP2LT"> F  </i>
   <i type="logical" name="LSMP2LT"> F  </i>
   <i type="logical" name="LGWLF"> F  </i>
   <i name="ENCUTGW">     -2.00000000</i>
   <i name="ENCUTGWSOFT">     -2.00000000</i>
   <i name="ENCUTLF">     -1.00000000</i>
   <i type="logical" name="LESF_SPLINES"> F  </i>
   <i type="int" name="LMAXMP2">    -1</i>
   <i name="SCISSOR">      0.00000000</i>
   <i type="int" name="NOMEGA">     0</i>
   <i type="int" name="NOMEGAR">     0</i>
   <i type="int" name="NBANDSGW">    -1</i>
   <i type="int" name="NBANDSO">    -1</i>
   <i type="int" name="NBANDSV">    -1</i>
   <i type="int" name="NELMGW">     1</i>
   <i type="int" name="NELMHF">     1</i>
   <i type="int" name="DIM">     3</i>
   <i type="int" name="IESPILON">     4</i>
   <i type="int" name="ANTIRES">     0</i>
   <i name="OMEGAMAX">    -30.00000000</i>
   <i name="OMEGAMIN">    -30.00000000</i>
   <i name="OMEGATL">   -200.00000000</i>
   <i type="int" name="OMEGAGRID">     0</i>
   <i name="CSHIFT">     -0.10000000</i>
   <i type="logical" name="LSELFENERGY"> F  </i>
   <i type="logical" name="LSPECTRAL"> F  </i>
   <i type="logical" name="LSPECTRALGW"> F  </i>
   <i type="logical" name="LSINGLES"> F  </i>
   <i type="logical" name="LFERMIGW"> F  </i>
   <i type="logical" name="ODDONLYGW"> F  </i>
   <i type="logical" name="EVENONLYGW"> F  </i>
   <i type="int" name="NKREDLFX">     1</i>
   <i type="int" name="NKREDLFY">     1</i>
   <i type="int" name="NKREDLFZ">     1</i>
   <i type="int" name="MAXMEM">  2800</i>
   <i type="int" name="TELESCOPE">     0</i>
   <i type="int" name="NTAUPAR">    -1</i>
   <i type="int" name="NOMEGAPAR">    -1</i>
   <i name="DAMP_NEWTON">      0.80000001</i>
   <i name="LAMBDA">      1.00000000</i>
  </separator>
  <separator name="External order field" >
   <i name="OFIELD_KAPPA">      0.00000000</i>
   <v name="OFIELD_K">      0.00000000      0.00000000      0.00000000</v>
   <i name="OFIELD_Q6_NEAR">      0.00000000</i>
   <i name="OFIELD_Q6_FAR">      0.00000000</i>
   <i name="OFIELD_A">      0.00000000</i>
  </separator>
  <separator name="optional k-points parameters" >
   <i type="int" name="KPOINTS_OPT_MODE">     1</i>
   <i type="logical" name="LKPOINTS_OPT"> F  </i>
  </separator>
 </parameters>
 <atominfo>
  <atoms>      32 </atoms>
  <types>       2 </types>
  <array name="atoms" >
   <dimension dim="1">ion</dimension>
   <field type="string">element</field>
   <field type="int">atomtype</field>
   <set>
    <rc><c>Ni</c><c>   1</c></rc>
    <rc><c>Ni</c><c>   1</c></rc>
    <rc><c>Ni</c><c>   1</c></rc>
    <rc><c>Ni</c><c>   1</c></rc>
    <rc><c>Ni</c><c>   1</c></rc>
    <rc><c>Ni</c><c>   1</c></rc>
    <rc><c>Ni</c><c>   1</c></rc>
    <rc><c>Ni</c><c>   1</c></rc>
    <rc><c>Ni</c><c>   1</c></rc>
    <rc><c>Ni</c><c>   1</c></rc>
    <rc><c>Ni</c><c>   1</c></rc>
    <rc><c>Ni</c><c>   1</c></rc>
    <rc><c>Ni</c><c>   1</c></rc>
    <rc><c>Ni</c><c>   1</c></rc>
    <rc><c>Ni</c><c>   1</c></rc>
    <rc><c>Ni</c><c>   1</c></rc>
    <rc><c>Ni</c><c>   1</c></rc>
    <rc><c>Ni</c><c>   1</c></rc>
    <rc><c>Ni</c><c>   1</c></rc>
    <rc><c>Ni</c><c>   1</c></rc>
    <rc><c>Ni</c><c>   1</c></rc>
    <rc><c>Ni</c><c>   1</c></rc>
    <rc><c>Ni</c><c>   1</c></rc>
    <rc><c>Ni</c><c>   1</c></rc>
    <rc><c>Ni</c><c>   1</c></rc>
    <rc><c>Ni</c><c>   1</c></rc>
    <rc><c>Ni</c><c>   1</c></rc>
    <rc><c>Ni</c><c>   1</c></rc>
    <rc><c>Ni</c><c>   1</c></rc>
    <rc><c>Ni</c><c>   1</c></rc>
    <rc><c>H </c><c>   2</c></rc>
    <rc><c>H </c><c>   2</c></rc>
   </set>
  </array>
  <array name="atomtypes" >
   <dimension dim="1">type</dimension>
   <field type="int">atomspertype</field>
   <field type="string">element</field>
   <field>mass</field>
   <field>valence</field>
   <field type="string">pseudopotential</field>
   <set>
    <rc><c>  30</c><c>Ni</c><c>     58.69000000</c><c>     10.00000000</c><c>  PAW_PBE Ni 02Aug2007                  </c></rc>
    <rc><c>   2</c><c>H </c><c>      1.00000000</c><c>      1.00000000</c><c>  PAW_PBE H 15Jun2001                   </c></rc>
   </set>
  </array>
 </atominfo>
 <structure name="initialpos" >
  <crystal>
   <varray name="basis" >
    <v>      16.00000000       0.00000000       0.00000000 </v>
    <v>       0.00000000      16.00000000       0.00000000 </v>
    <v>       0.00000000       0.00000000      16.00000000 </v>
   </varray>
   <i name="volume">   4096.00000000 </i>
   <varray name="rec_basis" >
    <v>       0.06250000       0.00000000       0.00000000 </v>
    <v>       0.00000000       0.06250000       0.00000000 </v>
    <v>       0.00000000       0.00000000       0.06250000 </v>
   </varray>
  </crystal>
  <varray name="positions" >
   <v>       0.24204812       0.46574375       0.39358062 </v>
   <v>       0.47664750       0.46996062       0.67724500 </v>
   <v>       0.56549250       0.67648500       0.38362437 </v>
   <v>       0.57311312       0.26554500       0.38499375 </v>
   <v>       0.33768562       0.46766813       0.62356500 </v>
   <v>       0.65978875       0.62061375       0.49154062 </v>
   <v>       0.66524938       0.32527375       0.49257937 </v>
   <v>       0.32675000       0.57369062       0.34481625 </v>
   <v>       0.33114375       0.36122812       0.34507188 </v>
   <v>       0.40257313       0.46809063       0.25190625 </v>
   <v>       0.53750625       0.26414000       0.53140812 </v>
   <v>       0.53031438       0.67711438       0.53047625 </v>
   <v>       0.65811125       0.54895063       0.35866813 </v>
   <v>       0.65967312       0.39560375       0.35880750 </v>
   <v>       0.42268937       0.59525687       0.59476000 </v>
   <v>       0.42683313       0.34299625       0.59471812 </v>
   <v>       0.46809750       0.59455000       0.30764875 </v>
   <v>       0.47352250       0.34516125       0.30878812 </v>
   <v>       0.42711875       0.30087688       0.44386313 </v>
   <v>       0.42129875       0.63628937       0.44334312 </v>
   <v>       0.31992125       0.54301125       0.49424562 </v>
   <v>       0.32328812       0.39197125       0.49426000 </v>
   <v>       0.54435625       0.47145750       0.30680125 </v>
   <v>       0.57267187       0.54664000       0.59011250 </v>
   <v>       0.57482875       0.39594625       0.59044750 </v>
   <v>       0.66008312       0.47271500       0.48947438 </v>
   <v>       0.45226000       0.46980438       0.53473625 </v>
   <v>       0.53660750       0.54776313       0.44005500 </v>
   <v>       0.53881625       0.39369375       0.44078812 </v>
   <v>       0.41230875       0.46914563       0.39380312 </v>
   <v>       0.55900000       0.63396687       0.71141687 </v>
   <v>       0.54606125       0.59564938       0.73393875 </v>
  </varray>
 </structure>
 <calculation>
  <scstep>
   <time name="dav">    3.92    3.93</time>
   <time name="total">    4.39    4.41</time>
   <energy>
    <i name="alphaZ">    113.16553179 </i>
    <i name="ewald">  56306.84110252 </i>
    <i name="hartreedc"> -86142.25808258 </i>
    <i name="XCdc">    936.69209001 </i>
    <i name="pawpsdc">  28888.58386782 </i>
    <i name="pawaedc"> -30893.72677109 </i>
    <i name="eentropy">     -0.00357624 </i>
    <i name="bandstr">    -52.20313796 </i>
    <i name="atom">  32354.87237921 </i>
    <i name="e_fr_energy">   1511.96340350 </i>
    <i name="e_wo_entrp">   1511.96697973 </i>
    <i name="e_0_energy">   1511.96519161 </i>
   </energy>
  </scstep>
  <scstep>
   <time name="dav">    4.10    4.12</time>
   <time name="total">    4.10    4.12</time>
   <energy>
    <i name="e_fr_energy">    -64.69399267 </i>
    <i name="e_wo_entrp">    -64.67768486 </i>
    <i name="e_0_energy">    -64.68583877 </i>
   </energy>
  </scstep>
  <scstep>
   <time name="dav">    4.17    4.19</time>
   <time name="total">    4.17    4.19</time>
   <energy>
    <i name="e_fr_energy">   -149.19626684 </i>
    <i name="e_wo_entrp">   -149.17894357 </i>
    <i name="e_0_energy">   -149.18760521 </i>
   </energy>
  </scstep>
  <scstep>
   <time name="dav">    4.12    4.14</time>
   <time name="total">    4.12    4.14</time>
   <energy>
    <i name="e_fr_energy">   -151.21486432 </i>
    <i name="e_wo_entrp">   -151.19767339 </i>
    <i name="e_0_energy">   -151.20626886 </i>
   </energy>
  </scstep>
  <scstep>
   <time name="dav">    4.51    4.54</time>
   <time name="total">    4.71    4.73</time>
   <energy>
    <i name="e_fr_energy">   -151.28016117 </i>
    <i name="e_wo_entrp">   -151.26295484 </i>
    <i name="e_0_energy">   -151.27155800 </i>
   </energy>
  </scstep>
  <scstep>
   <time name="dav">    4.14    4.15</time>
   <time name="total">    4.79    4.81</time>
   <energy>
    <i name="e_fr_energy">   -167.64178611 </i>
    <i name="e_wo_entrp">   -167.62825511 </i>
    <i name="e_0_energy">   -167.63502061 </i>
   </energy>
  </scstep>
  <scstep>
   <time name="dav">    4.06    4.07</time>
   <time name="total">    4.70    4.73</time>
   <energy>
    <i name="e_fr_energy">   -152.36829760 </i>
    <i name="e_wo_entrp">   -152.35543796 </i>
    <i name="e_0_energy">   -152.36186778 </i>
   </energy>
  </scstep>
  <scstep>
   <time name="dav">    4.11    4.12</time>
   <time name="total">    4.74    4.76</time>
   <energy>
    <i name="e_fr_energy">   -148.30903725 </i>
    <i name="e_wo_entrp">   -148.29161052 </i>
    <i name="e_0_energy">   -148.30032389 </i>
   </energy>
  </scstep>
  <scstep>
   <time name="dav">    4.40    4.41</time>
   <time name="total">    5.05    5.08</time>
   <energy>
    <i name="e_fr_energy">   -143.86537840 </i>
    <i name="e_wo_entrp">   -143.84957861 </i>
    <i name="e_0_energy">   -143.85747851 </i>
   </energy>
  </scstep>
  <scstep>
   <time name="dav">    4.29    4.30</time>
   <time name="total">    4.92    4.94</time>
   <energy>
    <i name="e_fr_energy">   -140.90861191 </i>
    <i name="e_wo_entrp">   -140.88925197 </i>
    <i name="e_0_energy">   -140.89893194 </i>
   </energy>
  </scstep>
  <scstep>
   <time name="dav">    4.24    4.25</time>
   <time name="total">    4.88    4.90</time>
   <energy>
    <i name="e_fr_energy">   -147.58254274 </i>
    <i name="e_wo_entrp">   -147.56729862 </i>
    <i name="e_0_energy">   -147.57492068 </i>
   </energy>
  </scstep>
  <scstep>
   <time name="dav">    4.50    4.51</time>
   <time name="total">    5.13    5.15</time>
   <energy>
    <i name="e_fr_energy">   -135.67563168 </i>
    <i name="e_wo_entrp">   -135.65426196 </i>
    <i name="e_0_energy">   -135.66494682 </i>
   </energy>
  </scstep>
  <scstep>
   <time name="dav">    4.20    4.21</time>
   <time name="total">    4.83    4.85</time>
   <energy>
    <i name="e_fr_energy">   -130.73587684 </i>
    <i name="e_wo_entrp">   -130.72125336 </i>
    <i name="e_0_energy">   -130.72856510 </i>
   </energy>
  </scstep>
  <scstep>
   <time name="dav">    4.35    4.36</time>
   <time name="total">    4.99    5.01</time>
   <energy>
    <i name="e_fr_energy">   -128.76843454 </i>
    <i name="e_wo_entrp">   -128.75536231 </i>
    <i name="e_0_energy">   -128.76189843 </i>
   </energy>
  </scstep>
  <scstep>
   <time name="dav">    4.12    4.13</time>
   <time name="total">    4.76    4.77</time>
   <energy>
    <i name="e_fr_energy">   -128.75217529 </i>
    <i name="e_wo_entrp">   -128.73986453 </i>
    <i name="e_0_energy">   -128.74601991 </i>
   </energy>
  </scstep>
  <scstep>
   <time name="dav">    4.09    4.10</time>
   <time name="total">    4.73    4.75</time>
   <energy>
    <i name="e_fr_energy">   -128.55753794 </i>
    <i name="e_wo_entrp">   -128.54652863 </i>
    <i name="e_0_energy">   -128.55203329 </i>
   </energy>
  </scstep>
  <scstep>
   <time name="dav">    4.04    4.05</time>
   <time name="total">    4.68    4.70</time>
   <energy>
    <i name="e_fr_energy">   -128.74103036 </i>
    <i name="e_wo_entrp">   -128.73299077 </i>
    <i name="e_0_energy">   -128.73701057 </i>
   </energy>
  </scstep>
  <scstep>
   <time name="dav">    4.08    4.09</time>
   <time name="total">    4.72    4.74</time>
   <energy>
    <i name="e_fr_energy">   -128.54432155 </i>
    <i name="e_wo_entrp">   -128.53054366 </i>
    <i name="e_0_energy">   -128.53743261 </i>
   </energy>
  </scstep>
  <scstep>
   <time name="dav">    4.08    4.09</time>
   <time name="total">    4.73    4.75</time>
   <energy>
    <i name="e_fr_energy">   -128.77126395 </i>
    <i name="e_wo_entrp">   -128.76780436 </i>
    <i name="e_0_energy">   -128.76953415 </i>
   </energy>
  </scstep>
  <scstep>
   <time name="dav">    4.11    4.12</time>
   <time name="total">    4.75    4.77</time>
   <energy>
    <i name="e_fr_energy">   -129.62175011 </i>
    <i name="e_wo_entrp">   -129.61392838 </i>
    <i name="e_0_energy">   -129.61783925 </i>
   </energy>
  </scstep>
  <scstep>
   <time name="dav">    4.02    4.03</time>
   <time name="total">    4.66    4.69</time>
   <energy>
    <i name="e_fr_energy">   -129.76370969 </i>
    <i name="e_wo_entrp">   -129.75957084 </i>
    <i name="e_0_energy">   -129.76164027 </i>
   </energy>
  </scstep>
  <scstep>
   <time name="dav">    4.08    4.09</time>
   <time name="total">    4.72    4.74</time>
   <energy>
    <i name="e_fr_energy">   -130.71177066 </i>
    <i name="e_wo_entrp">   -130.70618174 </i>
    <i name="e_0_energy">   -130.70897620 </i>
   </energy>
  </scstep>
  <scstep>
   <time name="dav">    4.05    4.06</time>
   <time name="total">    4.69    4.71</time>
   <energy>
    <i name="e_fr_energy">   -131.48514009 </i>
    <i name="e_wo_entrp">   -131.47830022 </i>
    <i name="e_0_energy">   -131.48172016 </i>
   </energy>
  </scstep>
  <scstep>
   <time name="dav">    4.15    4.16</time>
   <time name="total">    4.80    4.82</time>
   <energy>
    <i name="e_fr_energy">   -131.64769683 </i>
    <i name="e_wo_entrp">   -131.64308793 </i>
    <i name="e_0_energy">   -131.64539238 </i>
   </energy>
  </scstep>
  <scstep>
   <time name="dav">    4.00    4.01</time>
   <time name="total">    4.64    4.67</time>
   <energy>
    <i name="e_fr_energy">   -132.28872010 </i>
    <i name="e_wo_entrp">   -132.28239089 </i>
    <i name="e_0_energy">   -132.28555550 </i>
   </energy>
  </scstep>
  <scstep>
   <time name="dav">    4.05    4.06</time>
   <time name="total">    4.69    4.72</time>
   <energy>
    <i name="e_fr_energy">   -132.56614824 </i>
    <i name="e_wo_entrp">   -132.55792134 </i>
    <i name="e_0_energy">   -132.56203479 </i>
   </energy>
  </scstep>
  <scstep>
   <time name="dav">    4.04    4.05</time>
   <time name="total">    4.68    4.70</time>
   <energy>
    <i name="e_fr_energy">   -132.82685635 </i>
    <i name="e_wo_entrp">   -132.82010265 </i>
    <i name="e_0_energy">   -132.82347950 </i>
   </energy>
  </scstep>
  <scstep>
   <time name="dav">    4.00    4.01</time>
   <time name="total">    4.65    4.67</time>
   <energy>
    <i name="e_fr_energy">   -133.22505772 </i>
    <i name="e_wo_entrp">   -133.21684262 </i>
    <i name="e_0_energy">   -133.22095017 </i>
   </energy>
  </scstep>
  <scstep>
   <time name="dav">    4.04    4.05</time>
   <time name="total">    4.69    4.71</time>
   <energy>
    <i name="e_fr_energy">   -133.40204918 </i>
    <i name="e_wo_entrp">   -133.39503086 </i>
    <i name="e_0_energy">   -133.39854002 </i>
   </energy>
  </scstep>
  <scstep>
   <time name="dav">    4.05    4.06</time>
   <time name="total">    4.70    4.72</time>
   <energy>
    <i name="e_fr_energy">   -133.67369289 </i>
    <i name="e_wo_entrp">   -133.66616547 </i>
    <i name="e_0_energy">   -133.66992918 </i>
   </energy>
  </scstep>
  <scstep>
   <time name="dav">    4.08    4.09</time>
   <time name="total">    4.73    4.75</time>
   <energy>
    <i name="e_fr_energy">   -133.75342939 </i>
    <i name="e_wo_entrp">   -133.74727707 </i>
    <i name="e_0_energy">   -133.75035323 </i>
   </energy>
  </scstep>
  <scstep>
   <time name="dav">    4.10    4.11</time>
   <time name="total">    4.75    4.77</time>
   <energy>
    <i name="e_fr_energy">   -133.93640342 </i>
    <i name="e_wo_entrp">   -133.92905480 </i>
    <i name="e_0_energy">   -133.93272911 </i>
   </energy>
  </scstep>
  <scstep>
   <time name="dav">    4.12    4.13</time>
   <time name="total">    4.77    4.79</time>
   <energy>
    <i name="e_fr_energy">   -134.06249826 </i>
    <i name="e_wo_entrp">   -134.05556013 </i>
    <i name="e_0_energy">   -134.05902920 </i>
   </energy>
  </scstep>
  <scstep>
   <time name="dav">    4.32    4.33</time>
   <time name="total">    4.97    4.98</time>
   <energy>
    <i name="e_fr_energy">   -134.30307378 </i>
    <i name="e_wo_entrp">   -134.29456312 </i>
    <i name="e_0_energy">   -134.29881845 </i>
   </energy>
  </scstep>
  <scstep>
   <time name="dav">    4.00    4.01</time>
   <time name="total">    4.65    4.67</time>
   <energy>
    <i name="e_fr_energy">   -134.49949808 </i>
    <i name="e_wo_entrp">   -134.49224076 </i>
    <i name="e_0_energy">   -134.49586942 </i>
   </energy>
  </scstep>
  <scstep>
   <time name="dav">    4.29    4.30</time>
   <time name="total">    4.94    4.97</time>
   <energy>
    <i name="e_fr_energy">   -134.67484397 </i>
    <i name="e_wo_entrp">   -134.66787264 </i>
    <i name="e_0_energy">   -134.67135830 </i>
   </energy>
  </scstep>
  <scstep>
   <time name="dav">    4.17    4.18</time>
   <time name="total">    4.83    4.84</time>
   <energy>
    <i name="e_fr_energy">   -134.80036168 </i>
    <i name="e_wo_entrp">   -134.79400477 </i>
    <i name="e_0_energy">   -134.79718322 </i>
   </energy>
  </scstep>
  <scstep>
   <time name="dav">    4.27    4.28</time>
   <time name="total">    4.92    4.95</time>
   <energy>
    <i name="e_fr_energy">   -134.85965260 </i>
    <i name="e_wo_entrp">   -134.85335812 </i>
    <i name="e_0_energy">   -134.85650536 </i>
   </energy>
  </scstep>
  <scstep>
   <time name="dav">    4.20    4.21</time>
   <time name="total">    4.85    4.87</time>
   <energy>
    <i name="e_fr_energy">   -134.90339547 </i>
    <i name="e_wo_entrp">   -134.89742518 </i>
    <i name="e_0_energy">   -134.90041032 </i>
   </energy>
  </scstep>
  <scstep>
   <time name="dav">    4.21    4.22</time>
   <time name="total">    4.87    4.90</time>
   <energy>
    <i name="e_fr_energy">   -134.92391927 </i>
    <i name="e_wo_entrp">   -134.91772908 </i>
    <i name="e_0_energy">   -134.92082417 </i>
   </energy>
  </scstep>
  <scstep>
   <time name="dav">    4.85    4.86</time>
   <time name="total">    5.50    5.52</time>
   <energy>
    <i name="e_fr_energy">   -134.97214234 </i>
    <i name="e_wo_entrp">   -134.96603388 </i>
    <i name="e_0_energy">   -134.96908811 </i>
   </energy>
  </scstep>
  <scstep>
   <time name="dav">    4.34    4.35</time>
   <time name="total">    5.00    5.02</time>
   <energy>
    <i name="e_fr_energy">   -134.98655281 </i>
    <i name="e_wo_entrp">   -134.98022537 </i>
    <i name="e_0_energy">   -134.98338909 </i>
   </energy>
  </scstep>
  <scstep>
   <time name="dav">    4.76    4.77</time>
   <time name="total">    5.43    5.45</time>
   <energy>
    <i name="e_fr_energy">   -135.00623579 </i>
    <i name="e_wo_entrp">   -134.99987798 </i>
    <i name="e_0_energy">   -135.00305689 </i>
   </energy>
  </scstep>
  <scstep>
   <time name="dav">    4.49    4.50</time>
   <time name="total">    5.15    5.17</time>
   <energy>
    <i name="e_fr_energy">   -135.01467712 </i>
    <i name="e_wo_entrp">   -135.00835059 </i>
    <i name="e_0_energy">   -135.01151385 </i>
   </energy>
  </scstep>
  <scstep>
   <time name="dav">    3.98    3.99</time>
   <time name="total">    4.65    4.67</time>
   <energy>
    <i name="e_fr_energy">   -135.02217919 </i>
    <i name="e_wo_entrp">   -135.01586714 </i>
    <i name="e_0_energy">   -135.01902317 </i>
   </energy>
  </scstep>
  <scstep>
   <time name="dav">    4.05    4.06</time>
   <time name="total">    4.72    4.74</time>
   <energy>
    <i name="e_fr_energy">   -135.02704653 </i>
    <i name="e_wo_entrp">   -135.02080262 </i>
    <i name="e_0_energy">   -135.02392458 </i>
   </energy>
  </scstep>
  <scstep>
   <time name="dav">    3.28    3.29</time>
   <time name="total">    3.95    3.97</time>
   <energy>
    <i name="e_fr_energy">   -135.03082526 </i>
    <i name="e_wo_entrp">   -135.02457127 </i>
    <i name="e_0_energy">   -135.02769826 </i>
   </energy>
  </scstep>
  <scstep>
   <time name="dav">    3.35    3.36</time>
   <time name="total">    4.03    4.05</time>
   <energy>
    <i name="e_fr_energy">   -135.03357853 </i>
    <i name="e_wo_entrp">   -135.02731124 </i>
    <i name="e_0_energy">   -135.03044488 </i>
   </energy>
  </scstep>
  <scstep>
   <time name="dav">    2.94    2.95</time>
   <time name="total">    3.62    3.64</time>
   <energy>
    <i name="e_fr_energy">   -135.03480840 </i>
    <i name="e_wo_entrp">   -135.02850941 </i>
    <i name="e_0_energy">   -135.03165891 </i>
   </energy>
  </scstep>
  <scstep>
   <time name="dav">    3.10    3.10</time>
   <time name="total">    3.78    3.80</time>
   <energy>
    <i name="e_fr_energy">   -135.03656457 </i>
    <i name="e_wo_entrp">   -135.03027850 </i>
    <i name="e_0_energy">   -135.03342154 </i>
   </energy>
  </scstep>
  <scstep>
   <time name="dav">    2.99    3.00</time>
   <time name="total">    3.66    3.68</time>
   <energy>
    <i name="e_fr_energy">   -135.03778559 </i>
    <i name="e_wo_entrp">   -135.03149979 </i>
    <i name="e_0_energy">   -135.03464269 </i>
   </energy>
  </scstep>
  <scstep>
   <time name="dav">    2.94    2.95</time>
   <time name="total">    3.61    3.63</time>
   <energy>
    <i name="e_fr_energy">   -135.03829158 </i>
    <i name="e_wo_entrp">   -135.03201285 </i>
    <i name="e_0_energy">   -135.03515221 </i>
   </energy>
  </scstep>
  <scstep>
   <time name="dav">    2.87    2.88</time>
   <time name="total">    3.54    3.56</time>
   <energy>
    <i name="e_fr_energy">   -135.03909478 </i>
    <i name="e_wo_entrp">   -135.03282639 </i>
    <i name="e_0_energy">   -135.03596059 </i>
   </energy>
  </scstep>
  <scstep>
   <time name="dav">    2.92    2.92</time>
   <time name="total">    3.60    3.61</time>
   <energy>
    <i name="e_fr_energy">   -135.03936441 </i>
    <i name="e_wo_entrp">   -135.03309333 </i>
    <i name="e_0_energy">   -135.03622887 </i>
   </energy>
  </scstep>
  <scstep>
   <time name="dav">    2.81    2.82</time>
   <time name="total">    3.48    3.50</time>
   <energy>
    <i name="e_fr_energy">   -135.03970739 </i>
    <i name="e_wo_entrp">   -135.03343747 </i>
    <i name="e_0_energy">   -135.03657243 </i>
   </energy>
  </scstep>
  <scstep>
   <time name="dav">    2.91    2.92</time>
   <time name="total">    3.58    3.60</time>
   <energy>
    <i name="e_fr_energy">   -135.03986988 </i>
    <i name="e_wo_entrp">   -135.03358527 </i>
    <i name="e_0_energy">   -135.03672758 </i>
   </energy>
  </scstep>
  <scstep>
   <time name="dav">    2.84    2.85</time>
   <time name="total">    3.29    3.30</time>
   <energy>
    <i name="alphaZ">    113.16553179 </i>
    <i name="ewald">  56306.84110252 </i>
    <i name="hartreedc"> -86251.69145142 </i>
    <i name="XCdc">    916.01413728 </i>
    <i name="pawpsdc">  33164.91162888 </i>
    <i name="pawaedc"> -35211.84285829 </i>
    <i name="eentropy">     -0.00627748 </i>
    <i name="bandstr">  -1527.30413570 </i>
    <i name="atom">  32354.87237921 </i>
    <i name="e_fr_energy">   -135.03994319 </i>
    <i name="e_wo_entrp">   -135.03366571 </i>
    <i name="e_0_energy">   -135.03680445 </i>
   </energy>
  </scstep>
  <structure>
   <crystal>
    <varray name="basis" >
     <v>      16.00000000       0.00000000       0.00000000 </v>
     <v>       0.00000000      16.00000000       0.00000000 </v>
     <v>       0.00000000       0.00000000      16.00000000 </v>
    </varray>
    <i name="volume">   4096.00000000 </i>
    <varray name="rec_basis" >
     <v>       0.06250000       0.00000000       0.00000000 </v>
     <v>       0.00000000       0.06250000       0.00000000 </v>
     <v>       0.00000000       0.00000000       0.06250000 </v>
    </varray>
   </crystal>
   <varray name="positions" >
    <v>       0.24204812       0.46574375       0.39358062 </v>
    <v>       0.47664750       0.46996062       0.67724500 </v>
    <v>       0.56549250       0.67648500       0.38362437 </v>
    <v>       0.57311312       0.26554500       0.38499375 </v>
    <v>       0.33768562       0.46766813       0.62356500 </v>
    <v>       0.65978875       0.62061375       0.49154062 </v>
    <v>       0.66524938       0.32527375       0.49257937 </v>
    <v>       0.32675000       0.57369062       0.34481625 </v>
    <v>       0.33114375       0.36122812       0.34507188 </v>
    <v>       0.40257313       0.46809063       0.25190625 </v>
    <v>       0.53750625       0.26414000       0.53140812 </v>
    <v>       0.53031438       0.67711438       0.53047625 </v>
    <v>       0.65811125       0.54895063       0.35866813 </v>
    <v>       0.65967312       0.39560375       0.35880750 </v>
    <v>       0.42268937       0.59525687       0.59476000 </v>
    <v>       0.42683313       0.34299625       0.59471812 </v>
    <v>       0.46809750       0.59455000       0.30764875 </v>
    <v>       0.47352250       0.34516125       0.30878812 </v>
    <v>       0.42711875       0.30087688       0.44386313 </v>
    <v>       0.42129875       0.63628937       0.44334312 </v>
    <v>       0.31992125       0.54301125       0.49424562 </v>
    <v>       0.32328812       0.39197125       0.49426000 </v>
    <v>       0.54435625       0.47145750       0.30680125 </v>
    <v>       0.57267187       0.54664000       0.59011250 </v>
    <v>       0.57482875       0.39594625       0.59044750 </v>
    <v>       0.66008312       0.47271500       0.48947438 </v>
    <v>       0.45226000       0.46980438       0.53473625 </v>
    <v>       0.53660750       0.54776313       0.44005500 </v>
    <v>       0.53881625       0.39369375       0.44078812 </v>
    <v>       0.41230875       0.46914563       0.39380312 </v>
    <v>       0.55900000       0.63396687       0.71141687 </v>
    <v>       0.54606125       0.59564938       0.73393875 </v>
   </varray>
  </structure>
  <varray name="forces" >
   <v>       0.09341319       0.01057690       0.03328234 </v>
   <v>      -0.10280707      -0.14196557      -0.06112810 </v>
   <v>      -0.02177679      -0.03804119       0.00753940 </v>
   <v>      -0.04827863       0.04118763       0.01700017 </v>
   <v>       0.02110006       0.01724892      -0.01692939 </v>
   <v>      -0.02579730      -0.00651104      -0.04394229 </v>
   <v>      -0.08300298       0.00865124      -0.02684283 </v>
   <v>       0.05243004      -0.03650156       0.01833627 </v>
   <v>       0.06169983       0.01793622       0.02128492 </v>
   <v>      -0.02412872      -0.00649064       0.03534725 </v>
   <v>       0.00928312       0.03673327      -0.02187426 </v>
   <v>       0.00781983      -0.03041467      -0.08690665 </v>
   <v>      -0.07424875      -0.01155955       0.03748833 </v>
   <v>      -0.05470880       0.04049035       0.02474254 </v>
   <v>      -0.09484373      -0.01563606      -0.11788325 </v>
   <v>       0.03967172       0.06432944      -0.03343393 </v>
   <v>       0.00902017      -0.01458847       0.02712661 </v>
   <v>      -0.01303909       0.01381654       0.00171159 </v>
   <v>       0.02412252       0.02877183       0.04240322 </v>
   <v>       0.04006751      -0.05035323       0.00810943 </v>
   <v>       0.03007343      -0.05379451       0.00644906 </v>
   <v>      -0.00760854       0.00782328      -0.04010651 </v>
   <v>      -0.01411678      -0.00845797      -0.01024919 </v>
   <v>      -0.04704785       0.07303130       0.01544780 </v>
   <v>      -0.03371289       0.01334522      -0.07353622 </v>
   <v>      -0.06659058      -0.00246359       0.02072340 </v>
   <v>       0.01432026      -0.06668233      -0.04290746 </v>
   <v>       0.03819332      -0.03598655       0.07143594 </v>
   <v>       0.03338203       0.02661489       0.01872871 </v>
   <v>       0.03763049       0.00929095      -0.04036302 </v>
   <v>       0.33135921       0.75831016      -0.29678986 </v>
   <v>      -0.13187820      -0.64871119       0.50573598 </v>
  </varray>
  <varray name="stress" >
   <v>      -1.16370716       0.23537137       0.05659544 </v>
   <v>       0.23537136      -0.77214339      -0.00180065 </v>
   <v>       0.05659541      -0.00180065      -0.69140452 </v>
  </varray>
  <energy>
   <i name="e_fr_energy">   -135.03994319 </i>
   <i name="e_wo_entrp">   -135.03366571 </i>
   <i name="e_0_energy">   -135.03680445 </i>
  </energy>
  <time name="totalsc">  265.15  266.49</time>
 </calculation>
 <calculation>
  <scstep>
   <time name="dav">    4.04    4.05</time>
   <time name="total">    4.68    4.69</time>
   <energy>
    <i name="alphaZ">    113.16553179 </i>
    <i name="ewald">  56409.04162939 </i>
    <i name="hartreedc"> -86354.09234466 </i>
    <i name="XCdc">    916.07928242 </i>
    <i name="pawpsdc">  33164.99693147 </i>
    <i name="pawaedc"> -35211.92778894 </i>
    <i name="eentropy">     -0.00655157 </i>
    <i name="bandstr">  -1527.15405739 </i>
    <i name="atom">  32354.87237921 </i>
    <i name="e_fr_energy">   -135.02498828 </i>
    <i name="e_wo_entrp">   -135.01843671 </i>
    <i name="e_0_energy">   -135.02171249 </i>
   </energy>
  </scstep>
  <scstep>
   <time name="dav">    5.06    5.07</time>
   <time name="total">    5.70    5.73</time>
   <energy>
    <i name="e_fr_energy">   -135.04473393 </i>
    <i name="e_wo_entrp">   -135.03926607 </i>
    <i name="e_0_energy">   -135.04200000 </i>
   </energy>
  </scstep>
  <scstep>
   <time name="dav">    4.12    4.13</time>
   <time name="total">    4.76    4.78</time>
   <energy>
    <i name="e_fr_energy">   -135.02065507 </i>
    <i name="e_wo_entrp">   -135.01374425 </i>
    <i name="e_0_energy">   -135.01719966 </i>
   </energy>
  </scstep>
  <scstep>
   <time name="dav">    4.85    4.86</time>
   <time name="total">    5.49    5.51</time>
   <energy>
    <i name="e_fr_energy">   -135.03481035 </i>
    <i name="e_wo_entrp">   -135.02817461 </i>
    <i name="e_0_energy">   -135.03149248 </i>
   </energy>
  </scstep>
  <scstep>
   <time name="dav">    4.43    4.44</time>
   <time name="total">    5.07    5.09</time>
   <energy>
    <i name="e_fr_energy">   -135.02431423 </i>
    <i name="e_wo_entrp">   -135.01858749 </i>
    <i name="e_0_energy">   -135.02145086 </i>
   </energy>
  </scstep>
  <scstep>
   <time name="dav">    4.25    4.26</time>
   <time name="total">    4.97    4.98</time>
   <energy>
    <i name="e_fr_energy">   -135.02047088 </i>
    <i name="e_wo_entrp">   -135.01355116 </i>
    <i name="e_0_energy">   -135.01701102 </i>
   </energy>
  </scstep>
  <scstep>
   <time name="dav">    4.83    4.84</time>
   <time name="total">    5.46    5.48</time>
   <energy>
    <i name="e_fr_energy">   -135.02399139 </i>
    <i name="e_wo_entrp">   -135.01725506 </i>
    <i name="e_0_energy">   -135.02062323 </i>
   </energy>
  </scstep>
  <scstep>
   <time name="dav">    4.25    4.26</time>
   <time name="total">    4.89    4.91</time>
   <energy>
    <i name="e_fr_energy">   -135.02128004 </i>
    <i name="e_wo_entrp">   -135.01456680 </i>
    <i name="e_0_energy">   -135.01792342 </i>
   </energy>
  </scstep>
  <scstep>
   <time name="dav">    4.19    4.20</time>
   <time name="total">    4.83    4.85</time>
   <energy>
    <i name="e_fr_energy">   -135.02030213 </i>
    <i name="e_wo_entrp">   -135.01379066 </i>
    <i name="e_0_energy">   -135.01704640 </i>
   </energy>
  </scstep>
  <scstep>
   <time name="dav">    4.01    4.02</time>
   <time name="total">    4.65    4.67</time>
   <energy>
    <i name="e_fr_energy">   -135.02066098 </i>
    <i name="e_wo_entrp">   -135.01427345 </i>
    <i name="e_0_energy">   -135.01746721 </i>
   </energy>
  </scstep>
  <scstep>
   <time name="dav">    3.09    3.10</time>
   <time name="total">    3.54    3.56</time>
   <energy>
    <i name="alphaZ">    113.16553179 </i>
    <i name="ewald">  56409.04162939 </i>
    <i name="hartreedc"> -86352.58567778 </i>
    <i name="XCdc">    915.93938226 </i>
    <i name="pawpsdc">  33183.88848648 </i>
    <i name="pawaedc"> -35231.09542571 </i>
    <i name="eentropy">     -0.00656281 </i>
    <i name="bandstr">  -1528.24046004 </i>
    <i name="atom">  32354.87237921 </i>
    <i name="e_fr_energy">   -135.02071720 </i>
    <i name="e_wo_entrp">   -135.01415439 </i>
    <i name="e_0_energy">   -135.01743580 </i>
   </energy>
  </scstep>
  <structure>
   <crystal>
    <varray name="basis" >
     <v>      16.00000000       0.00000000       0.00000000 </v>
     <v>       0.00000000      16.00000000       0.00000000 </v>
     <v>       0.00000000       0.00000000      16.00000000 </v>
    </varray>
    <i name="volume">   4096.00000000 </i>
    <varray name="rec_basis" >
     <v>       0.06250000       0.00000000       0.00000000 </v>
     <v>       0.00000000       0.06250000       0.00000000 </v>
     <v>       0.00000000       0.00000000       0.06250000 </v>
    </varray>
   </crystal>
   <varray name="positions" >
    <v>       0.24232978       0.46577564       0.39368098 </v>
    <v>       0.47633752       0.46953258       0.67706069 </v>
    <v>       0.56542684       0.67637030       0.38364711 </v>
    <v>       0.57296756       0.26566919       0.38504501 </v>
    <v>       0.33774925       0.46772013       0.62351396 </v>
    <v>       0.65971097       0.62059412       0.49140813 </v>
    <v>       0.66499911       0.32529983       0.49249844 </v>
    <v>       0.32690809       0.57358057       0.34487154 </v>
    <v>       0.33132979       0.36128221       0.34513605 </v>
    <v>       0.40250037       0.46807105       0.25201283 </v>
    <v>       0.53753424       0.26425076       0.53134217 </v>
    <v>       0.53033795       0.67702267       0.53021421 </v>
    <v>       0.65788738       0.54891577       0.35878116 </v>
    <v>       0.65950817       0.39572584       0.35888210 </v>
    <v>       0.42240341       0.59520973       0.59440456 </v>
    <v>       0.42695274       0.34319021       0.59461732 </v>
    <v>       0.46812470       0.59450601       0.30773054 </v>
    <v>       0.47348318       0.34520291       0.30879329 </v>
    <v>       0.42719148       0.30096363       0.44399098 </v>
    <v>       0.42141956       0.63613755       0.44336758 </v>
    <v>       0.32001193       0.54284905       0.49426507 </v>
    <v>       0.32326518       0.39199484       0.49413907 </v>
    <v>       0.54431369       0.47143200       0.30677035 </v>
    <v>       0.57253002       0.54686020       0.59015908 </v>
    <v>       0.57472710       0.39598649       0.59022578 </v>
    <v>       0.65988234       0.47270757       0.48953686 </v>
    <v>       0.45230318       0.46960332       0.53460688 </v>
    <v>       0.53672266       0.54765462       0.44027039 </v>
    <v>       0.53891690       0.39377400       0.44084460 </v>
    <v>       0.41242221       0.46917364       0.39368142 </v>
    <v>       0.55999910       0.63625331       0.71052200 </v>
    <v>       0.54566362       0.59369340       0.73546363 </v>
   </varray>
  </structure>
  <varray name="forces" >
   <v>       0.04966982       0.00562223       0.01297228 </v>
   <v>      -0.05725757      -0.08513338      -0.02223532 </v>
   <v>      -0.01627632      -0.02548479      -0.00942400 </v>
   <v>      -0.04030451       0.01684285      -0.00223216 </v>
   <v>       0.00009235       0.00826507      -0.02146687 </v>
   <v>       0.00406867       0.00434198      -0.03405401 </v>
   <v>      -0.04056803      -0.00016367      -0.02206529 </v>
   <v>       0.03387899      -0.01161201       0.00996320 </v>
   <v>       0.04152179      -0.00415295       0.00997334 </v>
   <v>      -0.02548071      -0.00449455       0.00786246 </v>
   <v>      -0.00024712       0.00704924      -0.00343111 </v>
   <v>       0.00403037      -0.00258120      -0.04408165 </v>
   <v>      -0.05520476      -0.00537222       0.01891568 </v>
   <v>      -0.02963364       0.02934225       0.00782309 </v>
   <v>      -0.06597233      -0.00640185      -0.08071203 </v>
   <v>       0.01500758       0.01604492      -0.01130731 </v>
   <v>       0.01564318      -0.01492619       0.01890581 </v>
   <v>      -0.00712370       0.00382905      -0.00507631 </v>
   <v>       0.01744365       0.02416078       0.02722193 </v>
   <v>       0.01553514      -0.04450026      -0.00098728 </v>
   <v>       0.02294623      -0.03657102      -0.00055291 </v>
   <v>      -0.00320277      -0.00130204      -0.02495514 </v>
   <v>      -0.01702968      -0.00548308      -0.01092622 </v>
   <v>      -0.05385495       0.08933145       0.11239246 </v>
   <v>      -0.02216459       0.01983360      -0.04262016 </v>
   <v>      -0.03200795       0.00690780       0.03349216 </v>
   <v>       0.00302749      -0.01909710      -0.05430078 </v>
   <v>       0.01054537      -0.02504547       0.04504229 </v>
   <v>       0.00452798       0.01579635      -0.00805930 </v>
   <v>       0.05033733       0.00438585      -0.00636940 </v>
   <v>      -0.28735977      -1.09121688       0.71801335 </v>
   <v>       0.46541247       1.13178523      -0.61772081 </v>
  </varray>
  <varray name="stress" >
   <v>      -0.92073439       0.08423081       0.16896424 </v>
   <v>       0.08423085      -1.04849093       0.21830245 </v>
   <v>       0.16896423       0.21830245      -0.60242681 </v>
  </varray>
  <energy>
   <i name="e_fr_energy">   -135.02071720 </i>
   <i name="e_wo_entrp">   -135.01415439 </i>
   <i name="e_0_energy">   -135.01743580 </i>
  </energy>
  <time name="totalsc">   59.52   59.76</time>
 </calculation>
 <calculation>
  <scstep>
   <time name="dav">    4.02    4.03</time>
   <time name="total">    4.66    4.67</time>
   <energy>
    <i name="alphaZ">    113.16553179 </i>
    <i name="ewald">  56429.22472782 </i>
    <i name="hartreedc"> -86371.88896912 </i>
    <i name="XCdc">    916.01246415 </i>
    <i name="pawpsdc">  33184.20423209 </i>
    <i name="pawaedc"> -35231.43108603 </i>
    <i name="eentropy">     -0.00659960 </i>
    <i name="bandstr">  -1529.21667061 </i>
    <i name="atom">  32354.87237921 </i>
    <i name="e_fr_energy">   -135.06399029 </i>
    <i name="e_wo_entrp">   -135.05739070 </i>
    <i name="e_0_energy">   -135.06069050 </i>
   </energy>
  </scstep>
  <scstep>
   <time name="dav">    5.17    5.18</time>
   <time name="total">    5.82    5.84</time>
   <energy>
    <i name="e_fr_energy">   -135.07008162 </i>
    <i name="e_wo_entrp">   -135.06366767 </i>
    <i name="e_0_energy">   -135.06687464 </i>
   </energy>
  </scstep>
  <scstep>
   <time name="dav">    4.25    4.26</time>
   <time name="total">    4.92    4.94</time>
   <energy>
    <i name="e_fr_energy">   -135.06120050 </i>
    <i name="e_wo_entrp">   -135.05462276 </i>
    <i name="e_0_energy">   -135.05791163 </i>
   </energy>
  </scstep>
  <scstep>
   <time name="dav">    4.72    4.74</time>
   <time name="total">    5.36    5.38</time>
   <energy>
    <i name="e_fr_energy">   -135.06562324 </i>
    <i name="e_wo_entrp">   -135.05886465 </i>
    <i name="e_0_energy">   -135.06224395 </i>
   </energy>
  </scstep>
  <scstep>
   <time name="dav">    4.63    4.64</time>
   <time name="total">    5.27    5.29</time>
   <energy>
    <i name="e_fr_energy">   -135.06384235 </i>
    <i name="e_wo_entrp">   -135.05717767 </i>
    <i name="e_0_energy">   -135.06051001 </i>
   </energy>
  </scstep>
  <scstep>
   <time name="dav">    4.47    4.48</time>
   <time name="total">    5.16    5.19</time>
   <energy>
    <i name="e_fr_energy">   -135.06191907 </i>
    <i name="e_wo_entrp">   -135.05550045 </i>
    <i name="e_0_energy">   -135.05870976 </i>
   </energy>
  </scstep>
  <scstep>
   <time name="dav">    4.62    4.63</time>
   <time name="total">    5.26    5.28</time>
   <energy>
    <i name="e_fr_energy">   -135.06256614 </i>
    <i name="e_wo_entrp">   -135.05588227 </i>
    <i name="e_0_energy">   -135.05922421 </i>
   </energy>
  </scstep>
  <scstep>
   <time name="dav">    4.10    4.11</time>
   <time name="total">    4.74    4.76</time>
   <energy>
    <i name="e_fr_energy">   -135.06216391 </i>
    <i name="e_wo_entrp">   -135.05538736 </i>
    <i name="e_0_energy">   -135.05877563 </i>
   </energy>
  </scstep>
  <scstep>
   <time name="dav">    3.53    3.54</time>
   <time name="total">    4.16    4.18</time>
   <energy>
    <i name="e_fr_energy">   -135.06198514 </i>
    <i name="e_wo_entrp">   -135.05545830 </i>
    <i name="e_0_energy">   -135.05872172 </i>
   </energy>
  </scstep>
  <scstep>
   <time name="dav">    2.89    2.90</time>
   <time name="total">    3.34    3.36</time>
   <energy>
    <i name="alphaZ">    113.16553179 </i>
    <i name="ewald">  56429.22472782 </i>
    <i name="hartreedc"> -86372.02516178 </i>
    <i name="XCdc">    916.06812132 </i>
    <i name="pawpsdc">  33191.76394095 </i>
    <i name="pawaedc"> -35239.06216184 </i>
    <i name="eentropy">     -0.00656267 </i>
    <i name="bandstr">  -1529.06284893 </i>
    <i name="atom">  32354.87237921 </i>
    <i name="e_fr_energy">   -135.06203412 </i>
    <i name="e_wo_entrp">   -135.05547145 </i>
    <i name="e_0_energy">   -135.05875278 </i>
   </energy>
  </scstep>
  <structure>
   <crystal>
    <varray name="basis" >
     <v>      16.00000000       0.00000000       0.00000000 </v>
     <v>       0.00000000      16.00000000       0.00000000 </v>
     <v>       0.00000000       0.00000000      16.00000000 </v>
    </varray>
    <i name="volume">   4096.00000000 </i>
    <varray name="rec_basis" >
     <v>       0.06250000       0.00000000       0.00000000 </v>
     <v>       0.00000000       0.06250000       0.00000000 </v>
     <v>       0.00000000       0.00000000       0.06250000 </v>
    </varray>
   </crystal>
   <varray name="positions" >
    <v>       0.24238833       0.46578227       0.39369627 </v>
    <v>       0.47627003       0.46943223       0.67703448 </v>
    <v>       0.56540765       0.67634026       0.38363600 </v>
    <v>       0.57292005       0.26568904       0.38504238 </v>
    <v>       0.33774935       0.46772988       0.62348865 </v>
    <v>       0.65971576       0.62059924       0.49136799 </v>
    <v>       0.66495129       0.32529964       0.49247243 </v>
    <v>       0.32694802       0.57356688       0.34488328 </v>
    <v>       0.33137873       0.36127731       0.34514781 </v>
    <v>       0.40247034       0.46806576       0.25202210 </v>
    <v>       0.53753395       0.26425907       0.53133813 </v>
    <v>       0.53034270       0.67701963       0.53016225 </v>
    <v>       0.65782231       0.54890944       0.35880345 </v>
    <v>       0.65947324       0.39576042       0.35889132 </v>
    <v>       0.42232564       0.59520218       0.59430943 </v>
    <v>       0.42697043       0.34320913       0.59460399 </v>
    <v>       0.46814314       0.59448842       0.30775283 </v>
    <v>       0.47347479       0.34520742       0.30878730 </v>
    <v>       0.42721204       0.30099211       0.44402306 </v>
    <v>       0.42143787       0.63608510       0.44336641 </v>
    <v>       0.32003897       0.54280594       0.49426442 </v>
    <v>       0.32326141       0.39199330       0.49410966 </v>
    <v>       0.54429361       0.47142553       0.30675747 </v>
    <v>       0.57246654       0.54696550       0.59029156 </v>
    <v>       0.57470097       0.39600987       0.59017554 </v>
    <v>       0.65984462       0.47271571       0.48957634 </v>
    <v>       0.45230675       0.46958081       0.53454287 </v>
    <v>       0.53673509       0.54762510       0.44032348 </v>
    <v>       0.53892224       0.39379262       0.44083510 </v>
    <v>       0.41248155       0.46917881       0.39367392 </v>
    <v>       0.55966039       0.63496708       0.71136833 </v>
    <v>       0.54621220       0.59502745       0.73473551 </v>
   </varray>
  </structure>
  <varray name="forces" >
   <v>       0.05251421       0.00469280       0.01125456 </v>
   <v>      -0.06415102      -0.09998523      -0.03002429 </v>
   <v>      -0.01541053      -0.02439838      -0.01054475 </v>
   <v>      -0.04040937       0.01539129      -0.00167820 </v>
   <v>      -0.00404894       0.00511706      -0.01769344 </v>
   <v>      -0.00207304       0.00114415      -0.02369233 </v>
   <v>      -0.03748524       0.00130701      -0.02073364 </v>
   <v>       0.03146432      -0.00799821       0.00643662 </v>
   <v>       0.03841255      -0.00353539       0.01061642 </v>
   <v>      -0.02605031      -0.00250981       0.00036128 </v>
   <v>      -0.00083906       0.00434586       0.00012582 </v>
   <v>       0.00114175      -0.00227303      -0.04880836 </v>
   <v>      -0.04628566      -0.00460923       0.01072778 </v>
   <v>      -0.02525348       0.02938385       0.00632272 </v>
   <v>      -0.06297152      -0.01126764      -0.08413678 </v>
   <v>       0.01234428       0.01330804      -0.01092900 </v>
   <v>       0.01622905      -0.01193828       0.00960204 </v>
   <v>      -0.00493627       0.00460954      -0.00481668 </v>
   <v>       0.01758613       0.02468417       0.02461699 </v>
   <v>       0.01463832      -0.03979094      -0.00206531 </v>
   <v>       0.01765114      -0.03250428      -0.00363631 </v>
   <v>      -0.00334051      -0.00725885      -0.01797097 </v>
   <v>      -0.01673279      -0.00445892      -0.01558380 </v>
   <v>      -0.05453219       0.05273942       0.05399633 </v>
   <v>      -0.01701940       0.02095601      -0.02999080 </v>
   <v>      -0.03108671       0.01076695       0.03548045 </v>
   <v>       0.00227783      -0.01340710      -0.03015509 </v>
   <v>       0.01001939      -0.02191947       0.04119373 </v>
   <v>       0.00114979       0.01604158      -0.00986239 </v>
   <v>       0.04614107       0.00304143      -0.01060511 </v>
   <v>       0.06037917      -0.05066675       0.14864716 </v>
   <v>       0.13067704       0.13099236       0.01354535 </v>
  </varray>
  <varray name="stress" >
   <v>      -0.88116988       0.18595819       0.12725885 </v>
   <v>       0.18595819      -0.75316299       0.10274414 </v>
   <v>       0.12725885       0.10274415      -0.49398868 </v>
  </varray>
  <energy>
   <i name="e_fr_energy">   -135.06203412 </i>
   <i name="e_wo_entrp">   -135.05547145 </i>
   <i name="e_0_energy">   -135.05875278 </i>
  </energy>
  <time name="totalsc">   54.10   54.32</time>
 </calculation>
 <calculation>
  <scstep>
   <time name="dav">    3.92    3.93</time>
   <time name="total">    4.57    4.58</time>
   <energy>
    <i name="alphaZ">    113.16553179 </i>
    <i name="ewald">  56476.51752827 </i>
    <i name="hartreedc"> -86418.82046690 </i>
    <i name="XCdc">    916.13176201 </i>
    <i name="pawpsdc">  33192.00681710 </i>
    <i name="pawaedc"> -35239.30427302 </i>
    <i name="eentropy">     -0.00683373 </i>
    <i name="bandstr">  -1529.62874795 </i>
    <i name="atom">  32354.87237921 </i>
    <i name="e_fr_energy">   -135.06630319 </i>
    <i name="e_wo_entrp">   -135.05946947 </i>
    <i name="e_0_energy">   -135.06288633 </i>
   </energy>
  </scstep>
  <scstep>
   <time name="dav">    5.03    5.05</time>
   <time name="total">    5.68    5.69</time>
   <energy>
    <i name="e_fr_energy">   -135.07643856 </i>
    <i name="e_wo_entrp">   -135.07105866 </i>
    <i name="e_0_energy">   -135.07374861 </i>
   </energy>
  </scstep>
  <scstep>
   <time name="dav">    4.13    4.14</time>
   <time name="total">    4.78    4.80</time>
   <energy>
    <i name="e_fr_energy">   -135.06563517 </i>
    <i name="e_wo_entrp">   -135.05869301 </i>
    <i name="e_0_energy">   -135.06216409 </i>
   </energy>
  </scstep>
  <scstep>
   <time name="dav">    4.86    4.87</time>
   <time name="total">    5.50    5.52</time>
   <energy>
    <i name="e_fr_energy">   -135.06758553 </i>
    <i name="e_wo_entrp">   -135.06067490 </i>
    <i name="e_0_energy">   -135.06413021 </i>
   </energy>
  </scstep>
  <scstep>
   <time name="dav">    4.18    4.19</time>
   <time name="total">    4.82    4.84</time>
   <energy>
    <i name="e_fr_energy">   -135.06743384 </i>
    <i name="e_wo_entrp">   -135.06082668 </i>
    <i name="e_0_energy">   -135.06413026 </i>
   </energy>
  </scstep>
  <scstep>
   <time name="dav">    4.05    4.06</time>
   <time name="total">    4.69    4.71</time>
   <energy>
    <i name="e_fr_energy">   -135.06718627 </i>
    <i name="e_wo_entrp">   -135.06038209 </i>
    <i name="e_0_energy">   -135.06378418 </i>
   </energy>
  </scstep>
  <scstep>
   <time name="dav">    2.83    2.84</time>
   <time name="total">    3.48    3.50</time>
   <energy>
    <i name="e_fr_energy">   -135.06728789 </i>
    <i name="e_wo_entrp">   -135.06051732 </i>
    <i name="e_0_energy">   -135.06390261 </i>
   </energy>
  </scstep>
  <scstep>
   <time name="dav">    2.93    2.93</time>
   <time name="total">    3.38    3.39</time>
   <energy>
    <i name="alphaZ">    113.16553179 </i>
    <i name="ewald">  56476.51752827 </i>
    <i name="hartreedc"> -86418.59763884 </i>
    <i name="XCdc">    916.12225284 </i>
    <i name="pawpsdc">  33200.49940290 </i>
    <i name="pawaedc"> -35247.88631298 </i>
    <i name="eentropy">     -0.00681070 </i>
    <i name="bandstr">  -1529.75370983 </i>
    <i name="atom">  32354.87237921 </i>
    <i name="e_fr_energy">   -135.06737733 </i>
    <i name="e_wo_entrp">   -135.06056663 </i>
    <i name="e_0_energy">   -135.06397198 </i>
   </energy>
  </scstep>
  <structure>
   <crystal>
    <varray name="basis" >
     <v>      16.00000000       0.00000000       0.00000000 </v>
     <v>       0.00000000      16.00000000       0.00000000 </v>
     <v>       0.00000000       0.00000000      16.00000000 </v>
    </varray>
    <i name="volume">   4096.00000000 </i>
    <varray name="rec_basis" >
     <v>       0.06250000       0.00000000       0.00000000 </v>
     <v>       0.00000000       0.06250000       0.00000000 </v>
     <v>       0.00000000       0.00000000       0.06250000 </v>
    </varray>
   </crystal>
   <varray name="positions" >
    <v>       0.24255302       0.46579678       0.39373116 </v>
    <v>       0.47606824       0.46911701       0.67693924 </v>
    <v>       0.56535962       0.67626416       0.38360283 </v>
    <v>       0.57279368       0.26573691       0.38503723 </v>
    <v>       0.33773597       0.46774533       0.62343398 </v>
    <v>       0.65970821       0.62060226       0.49129571 </v>
    <v>       0.66483462       0.32530398       0.49240783 </v>
    <v>       0.32704598       0.57354250       0.34490279 </v>
    <v>       0.33149830       0.36126636       0.34518112 </v>
    <v>       0.40238878       0.46805825       0.25202192 </v>
    <v>       0.53753122       0.26427218       0.53133914 </v>
    <v>       0.53034577       0.67701257       0.53000882 </v>
    <v>       0.65767913       0.54889516       0.35883557 </v>
    <v>       0.65939504       0.39585231       0.35891083 </v>
    <v>       0.42212927       0.59516611       0.59404575 </v>
    <v>       0.42700857       0.34325026       0.59456988 </v>
    <v>       0.46819398       0.59445161       0.30778123 </v>
    <v>       0.47345973       0.34522197       0.30877229 </v>
    <v>       0.42726706       0.30106938       0.44409958 </v>
    <v>       0.42148349       0.63596150       0.44335977 </v>
    <v>       0.32009324       0.54270502       0.49425251 </v>
    <v>       0.32325094       0.39196957       0.49405468 </v>
    <v>       0.54424134       0.47141177       0.30670793 </v>
    <v>       0.57229591       0.54712404       0.59045023 </v>
    <v>       0.57464865       0.39607559       0.59008396 </v>
    <v>       0.65974757       0.47275005       0.48968762 </v>
    <v>       0.45231374       0.46953988       0.53445278 </v>
    <v>       0.53676633       0.54755710       0.44045162 </v>
    <v>       0.53892525       0.39384282       0.44080394 </v>
    <v>       0.41262509       0.46918808       0.39364002 </v>
    <v>       0.55990967       0.63498965       0.71173409 </v>
    <v>       0.54656258       0.59526295       0.73488768 </v>
   </varray>
  </structure>
  <varray name="forces" >
   <v>       0.02899210      -0.00150209      -0.00480119 </v>
   <v>      -0.05332559      -0.08739722      -0.02232880 </v>
   <v>      -0.01017132      -0.02443589      -0.01138028 </v>
   <v>      -0.03854554       0.01293627      -0.00274747 </v>
   <v>      -0.01087916      -0.00325133      -0.01878756 </v>
   <v>       0.00598152       0.00465967      -0.01381405 </v>
   <v>      -0.03375135       0.00634795      -0.02039239 </v>
   <v>       0.02377892      -0.00489457       0.00002745 </v>
   <v>       0.02845941      -0.00776047       0.00638231 </v>
   <v>      -0.02301518      -0.00313954      -0.00366209 </v>
   <v>       0.00045685       0.00399951       0.00020366 </v>
   <v>      -0.00021125       0.00499442      -0.03556612 </v>
   <v>      -0.03927916      -0.00301735       0.00712206 </v>
   <v>      -0.01772969       0.02392052       0.00422962 </v>
   <v>      -0.04593450      -0.00531499      -0.06450009 </v>
   <v>       0.00365787       0.00377229      -0.00910603 </v>
   <v>       0.01348341      -0.01367787       0.00221602 </v>
   <v>      -0.00308286       0.00086250      -0.00665609 </v>
   <v>       0.01277417       0.01826826       0.01492326 </v>
   <v>       0.00845114      -0.03240534      -0.00594466 </v>
   <v>       0.00646176      -0.02503042      -0.00910773 </v>
   <v>      -0.00096069      -0.01111241      -0.01330622 </v>
   <v>      -0.01570948      -0.00429507      -0.01399350 </v>
   <v>      -0.04512908       0.04340919       0.06084697 </v>
   <v>      -0.01610812       0.02150193      -0.01947299 </v>
   <v>      -0.01730815       0.01252405       0.03456313 </v>
   <v>      -0.00105456      -0.00858654      -0.01856166 </v>
   <v>       0.01012836      -0.01247185       0.03103089 </v>
   <v>       0.00239673       0.01271240      -0.01553569 </v>
   <v>       0.03248599      -0.00120584      -0.01119852 </v>
   <v>       0.09732935       0.05248260       0.08691510 </v>
   <v>       0.09735808       0.02710727       0.07240265 </v>
  </varray>
  <varray name="stress" >
   <v>      -0.75621907       0.11719688       0.13159391 </v>
   <v>       0.11719688      -0.57386048       0.08578453 </v>
   <v>       0.13159392       0.08578451      -0.35381953 </v>
  </varray>
  <energy>
   <i name="e_fr_energy">   -135.06737733 </i>
   <i name="e_wo_entrp">   -135.06056663 </i>
   <i name="e_0_energy">   -135.06397198 </i>
  </energy>
  <time name="totalsc">   42.30   42.48</time>
 </calculation>
 <calculation>
  <scstep>
   <time name="dav">    3.93    3.93</time>
   <time name="total">    4.56    4.58</time>
   <energy>
    <i name="alphaZ">    113.16553179 </i>
    <i name="ewald">  56559.14763712 </i>
    <i name="hartreedc"> -86500.39935844 </i>
    <i name="XCdc">    916.22346715 </i>
    <i name="pawpsdc">  33202.18207943 </i>
    <i name="pawaedc"> -35249.57386876 </i>
    <i name="eentropy">     -0.00730066 </i>
    <i name="bandstr">  -1530.68253710 </i>
    <i name="atom">  32354.87237921 </i>
    <i name="e_fr_energy">   -135.07197025 </i>
    <i name="e_wo_entrp">   -135.06466959 </i>
    <i name="e_0_energy">   -135.06831992 </i>
   </energy>
  </scstep>
  <scstep>
   <time name="dav">    4.83    4.84</time>
   <time name="total">    5.47    5.49</time>
   <energy>
    <i name="e_fr_energy">   -135.10996865 </i>
    <i name="e_wo_entrp">   -135.10476080 </i>
    <i name="e_0_energy">   -135.10736472 </i>
   </energy>
  </scstep>
  <scstep>
   <time name="dav">    4.13    4.14</time>
   <time name="total">    4.77    4.79</time>
   <energy>
    <i name="e_fr_energy">   -135.07220680 </i>
    <i name="e_wo_entrp">   -135.06476862 </i>
    <i name="e_0_energy">   -135.06848771 </i>
   </energy>
  </scstep>
  <scstep>
   <time name="dav">    4.69    4.70</time>
   <time name="total">    5.33    5.35</time>
   <energy>
    <i name="e_fr_energy">   -135.08135159 </i>
    <i name="e_wo_entrp">   -135.07374285 </i>
    <i name="e_0_energy">   -135.07754722 </i>
   </energy>
  </scstep>
  <scstep>
   <time name="dav">    4.24    4.25</time>
   <time name="total">    4.89    4.91</time>
   <energy>
    <i name="e_fr_energy">   -135.07832188 </i>
    <i name="e_wo_entrp">   -135.07116752 </i>
    <i name="e_0_energy">   -135.07474470 </i>
   </energy>
  </scstep>
  <scstep>
   <time name="dav">    4.05    4.06</time>
   <time name="total">    4.69    4.71</time>
   <energy>
    <i name="e_fr_energy">   -135.07646166 </i>
    <i name="e_wo_entrp">   -135.06913803 </i>
    <i name="e_0_energy">   -135.07279984 </i>
   </energy>
  </scstep>
  <scstep>
   <time name="dav">    4.38    4.39</time>
   <time name="total">    5.02    5.04</time>
   <energy>
    <i name="e_fr_energy">   -135.07722182 </i>
    <i name="e_wo_entrp">   -135.06986691 </i>
    <i name="e_0_energy">   -135.07354437 </i>
   </energy>
  </scstep>
  <scstep>
   <time name="dav">    4.18    4.19</time>
   <time name="total">    4.82    4.84</time>
   <energy>
    <i name="e_fr_energy">   -135.07752541 </i>
    <i name="e_wo_entrp">   -135.07031806 </i>
    <i name="e_0_energy">   -135.07392173 </i>
   </energy>
  </scstep>
  <scstep>
   <time name="dav">    4.08    4.09</time>
   <time name="total">    4.72    4.74</time>
   <energy>
    <i name="e_fr_energy">   -135.07688914 </i>
    <i name="e_wo_entrp">   -135.06986647 </i>
    <i name="e_0_energy">   -135.07337781 </i>
   </energy>
  </scstep>
  <scstep>
   <time name="dav">    3.85    3.86</time>
   <time name="total">    4.50    4.52</time>
   <energy>
    <i name="e_fr_energy">   -135.07708252 </i>
    <i name="e_wo_entrp">   -135.07007282 </i>
    <i name="e_0_energy">   -135.07357767 </i>
   </energy>
  </scstep>
  <scstep>
   <time name="dav">    3.50    3.51</time>
   <time name="total">    4.15    4.17</time>
   <energy>
    <i name="e_fr_energy">   -135.07692515 </i>
    <i name="e_wo_entrp">   -135.06968341 </i>
    <i name="e_0_energy">   -135.07330428 </i>
   </energy>
  </scstep>
  <scstep>
   <time name="dav">    2.87    2.87</time>
   <time name="total">    3.32    3.33</time>
   <energy>
    <i name="alphaZ">    113.16553179 </i>
    <i name="ewald">  56559.14763712 </i>
    <i name="hartreedc"> -86499.88028287 </i>
    <i name="XCdc">    916.20079698 </i>
    <i name="pawpsdc">  33222.56209434 </i>
    <i name="pawaedc"> -35270.23663840 </i>
    <i name="eentropy">     -0.00713014 </i>
    <i name="bandstr">  -1530.90128805 </i>
    <i name="atom">  32354.87237921 </i>
    <i name="e_fr_energy">   -135.07690001 </i>
    <i name="e_wo_entrp">   -135.06976987 </i>
    <i name="e_0_energy">   -135.07333494 </i>
   </energy>
  </scstep>
  <structure>
   <crystal>
    <varray name="basis" >
     <v>      16.00000000       0.00000000       0.00000000 </v>
     <v>       0.00000000      16.00000000       0.00000000 </v>
     <v>       0.00000000       0.00000000      16.00000000 </v>
    </varray>
    <i name="volume">   4096.00000000 </i>
    <varray name="rec_basis" >
     <v>       0.06250000       0.00000000       0.00000000 </v>
     <v>       0.00000000       0.06250000       0.00000000 </v>
     <v>       0.00000000       0.00000000       0.06250000 </v>
    </varray>
   </crystal>
   <varray name="positions" >
    <v>       0.24280856       0.46578340       0.39368844 </v>
    <v>       0.47559756       0.46834560       0.67674240 </v>
    <v>       0.56526984       0.67604821       0.38350230 </v>
    <v>       0.57245315       0.26585121       0.38501291 </v>
    <v>       0.33763984       0.46771652       0.62326783 </v>
    <v>       0.65976146       0.62064362       0.49117352 </v>
    <v>       0.66453638       0.32536013       0.49222761 </v>
    <v>       0.32725600       0.57349920       0.34490302 </v>
    <v>       0.33174964       0.36119768       0.34523739 </v>
    <v>       0.40218552       0.46803043       0.25198974 </v>
    <v>       0.53753531       0.26430761       0.53134081 </v>
    <v>       0.53034398       0.67705686       0.52969503 </v>
    <v>       0.65733192       0.54886851       0.35889871 </v>
    <v>       0.65923840       0.39606354       0.35894821 </v>
    <v>       0.42172368       0.59511945       0.59347641 </v>
    <v>       0.42704078       0.34328347       0.59448945 </v>
    <v>       0.46831304       0.59433061       0.30780097 </v>
    <v>       0.47343246       0.34522948       0.30871342 </v>
    <v>       0.42737981       0.30123063       0.44423131 </v>
    <v>       0.42155805       0.63567518       0.44330719 </v>
    <v>       0.32015027       0.54248388       0.49417202 </v>
    <v>       0.32324251       0.39187151       0.49393697 </v>
    <v>       0.54410255       0.47137379       0.30658449 </v>
    <v>       0.57189740       0.54750866       0.59099006 </v>
    <v>       0.57450617       0.39626554       0.58991170 </v>
    <v>       0.65959492       0.47286061       0.48999292 </v>
    <v>       0.45230437       0.46946392       0.53428819 </v>
    <v>       0.53685584       0.54744701       0.44072570 </v>
    <v>       0.53894657       0.39395506       0.44066661 </v>
    <v>       0.41291197       0.46917738       0.39354121 </v>
    <v>       0.56075830       0.63541925       0.71252059 </v>
    <v>       0.54743378       0.59553518       0.73550662 </v>
   </varray>
  </structure>
  <varray name="forces" >
   <v>       0.02009732      -0.00809046      -0.01723638 </v>
   <v>      -0.03446345      -0.04544923       0.00348187 </v>
   <v>       0.00010933      -0.00858619      -0.01852970 </v>
   <v>      -0.01951148      -0.01346629      -0.00997829 </v>
   <v>      -0.02790325      -0.01073809      -0.01381640 </v>
   <v>      -0.00404476       0.00430859       0.01028821 </v>
   <v>      -0.00805891       0.00563306      -0.01221829 </v>
   <v>       0.00679145       0.00155311      -0.00828967 </v>
   <v>       0.00645717      -0.01098379      -0.00041319 </v>
   <v>      -0.02242181      -0.00055370      -0.01237065 </v>
   <v>      -0.00517627      -0.01389526       0.01664410 </v>
   <v>      -0.00380803       0.00422130      -0.01550828 </v>
   <v>      -0.01094424       0.00381155      -0.01263828 </v>
   <v>       0.00007022       0.02020077      -0.00146197 </v>
   <v>      -0.01974423       0.00764489      -0.01890558 </v>
   <v>      -0.01259234      -0.01970205       0.00287079 </v>
   <v>       0.00853934      -0.00810594      -0.01369349 </v>
   <v>      -0.00381271      -0.00596570      -0.02491980 </v>
   <v>       0.01241841       0.00843707       0.00187216 </v>
   <v>      -0.00430737      -0.01267153      -0.01039833 </v>
   <v>      -0.00910170      -0.01843276      -0.02510748 </v>
[...]
   </varray>
  </structure>
  <varray name="forces" >
   <v>       0.00093102      -0.00037175      -0.00260857 </v>
   <v>      -0.00030797       0.00062704      -0.00041184 </v>
   <v>      -0.00052516       0.00197227      -0.00041951 </v>
   <v>       0.00031743      -0.00067048       0.00009934 </v>
   <v>      -0.00170741      -0.00015754      -0.00008707 </v>
   <v>      -0.00000944      -0.00075751      -0.00124008 </v>
   <v>       0.00033493       0.00086986      -0.00164420 </v>
   <v>       0.00081375      -0.00076146      -0.00053544 </v>
   <v>       0.00082476       0.00047986      -0.00003395 </v>
   <v>       0.00032090      -0.00004212       0.00022290 </v>
   <v>       0.00062117      -0.00115426       0.00036912 </v>
   <v>      -0.00029130      -0.00004283       0.00077342 </v>
   <v>      -0.00222311      -0.00059146       0.00016493 </v>
   <v>      -0.00206560      -0.00007886       0.00020500 </v>
   <v>      -0.00046083      -0.00065204      -0.00100504 </v>
   <v>      -0.00077525       0.00006477      -0.00011412 </v>
   <v>       0.00018121      -0.00063485      -0.00119030 </v>
   <v>       0.00062750      -0.00004055      -0.00115241 </v>
   <v>      -0.00159485      -0.00098464      -0.00050750 </v>
   <v>      -0.00213579       0.00096646      -0.00067190 </v>
   <v>      -0.00183047       0.00098231      -0.00030999 </v>
   <v>      -0.00125493      -0.00120184      -0.00029397 </v>
   <v>      -0.00036235      -0.00020607      -0.00073133 </v>
   <v>      -0.00071729      -0.00110525      -0.00178509 </v>
   <v>      -0.00006650       0.00001641      -0.00098902 </v>
   <v>       0.00061117      -0.00082362      -0.00286605 </v>
   <v>      -0.00425117      -0.00124850      -0.00108963 </v>
   <v>      -0.00084930      -0.00192936      -0.00284710 </v>
   <v>       0.00149710      -0.00051595      -0.00172129 </v>
   <v>      -0.00215882      -0.00092831      -0.00126233 </v>
   <v>       0.00674722      -0.00321903       0.01699162 </v>
   <v>       0.00975936       0.01213931       0.00669136 </v>
  </varray>
  <varray name="stress" >
   <v>      -0.55750362       0.01631171       0.01908525 </v>
   <v>       0.01631171      -0.56416465       0.01982689 </v>
   <v>       0.01908524       0.01982686      -0.53981576 </v>
  </varray>
  <energy>
   <i name="e_fr_energy">   -135.25289651 </i>
   <i name="e_wo_entrp">   -135.24583218 </i>
   <i name="e_0_energy">   -135.24936434 </i>
  </energy>
  <time name="totalsc">   19.45   19.53</time>
  <eigenvalues>
   <array>
    <dimension dim="1">band</dimension>
    <dimension dim="2">kpoint</dimension>
    <dimension dim="3">spin</dimension>
    <field>eigene</field>
    <field>occ</field>
    <set>
     <set comment="spin 1">
      <set comment="kpoint 1">
       <r>  -10.7732    1.0000 </r>
       <r>   -9.2809    1.0000 </r>
       <r>   -9.1815    1.0000 </r>
       <r>   -9.1392    1.0000 </r>
       <r>   -9.0152    1.0000 </r>
       <r>   -7.8186    1.0000 </r>
       <r>   -7.7816    1.0000 </r>
       <r>   -7.7782    1.0000 </r>
       <r>   -7.6975    1.0000 </r>
       <r>   -7.6497    1.0000 </r>
       <r>   -7.5735    1.0000 </r>
       <r>   -7.5289    1.0000 </r>
       <r>   -7.4200    1.0000 </r>
       <r>   -7.4018    1.0000 </r>
       <r>   -7.3036    1.0000 </r>
       <r>   -7.1715    1.0000 </r>
       <r>   -7.1656    1.0000 </r>
       <r>   -7.1640    1.0000 </r>
       <r>   -7.1221    1.0000 </r>
       <r>   -7.0733    1.0000 </r>
       <r>   -6.9616    1.0000 </r>
       <r>   -6.9482    1.0000 </r>
       <r>   -6.9206    1.0000 </r>
       <r>   -6.7797    1.0000 </r>
       <r>   -6.7211    1.0000 </r>
       <r>   -6.6455    1.0000 </r>
       <r>   -6.5653    1.0000 </r>
       <r>   -6.4838    1.0000 </r>
       <r>   -6.4363    1.0000 </r>
       <r>   -6.4278    1.0000 </r>
       <r>   -6.4083    1.0000 </r>
       <r>   -6.3728    1.0000 </r>
       <r>   -6.3544    1.0000 </r>
       <r>   -6.2781    1.0000 </r>
       <r>   -6.2286    1.0000 </r>
       <r>   -6.2263    1.0000 </r>
       <r>   -6.1629    1.0000 </r>
       <r>   -6.1431    1.0000 </r>
       <r>   -6.0840    1.0000 </r>
       <r>   -6.0766    1.0000 </r>
       <r>   -6.0743    1.0000 </r>
       <r>   -6.0146    1.0000 </r>
       <r>   -5.9900    1.0000 </r>
       <r>   -5.9836    1.0000 </r>
       <r>   -5.9235    1.0000 </r>
       <r>   -5.8890    1.0000 </r>
       <r>   -5.8643    1.0000 </r>
       <r>   -5.8492    1.0000 </r>
       <r>   -5.8397    1.0000 </r>
       <r>   -5.8313    1.0000 </r>
       <r>   -5.8072    1.0000 </r>
       <r>   -5.7965    1.0000 </r>
       <r>   -5.7833    1.0000 </r>
       <r>   -5.7303    1.0000 </r>
       <r>   -5.6727    1.0000 </r>
       <r>   -5.6324    1.0000 </r>
       <r>   -5.5996    1.0000 </r>
       <r>   -5.5825    1.0000 </r>
       <r>   -5.5450    1.0000 </r>
       <r>   -5.5159    1.0000 </r>
       <r>   -5.4909    1.0000 </r>
       <r>   -5.4892    1.0000 </r>
       <r>   -5.4479    1.0000 </r>
       <r>   -5.4159    1.0000 </r>
       <r>   -5.4044    1.0000 </r>
       <r>   -5.3454    1.0000 </r>
       <r>   -5.3013    1.0000 </r>
       <r>   -5.2666    1.0000 </r>
       <r>   -5.2097    1.0000 </r>
       <r>   -5.1934    1.0000 </r>
       <r>   -5.1525    1.0000 </r>
       <r>   -5.1371    1.0000 </r>
       <r>   -5.1287    1.0000 </r>
       <r>   -5.1089    1.0000 </r>
       <r>   -5.0597    1.0000 </r>
       <r>   -5.0568    1.0000 </r>
       <r>   -5.0348    1.0000 </r>
       <r>   -4.9805    1.0000 </r>
       <r>   -4.9784    1.0000 </r>
       <r>   -4.9609    1.0000 </r>
       <r>   -4.9408    1.0000 </r>
       <r>   -4.8983    1.0000 </r>
       <r>   -4.8718    1.0000 </r>
       <r>   -4.8363    1.0000 </r>
       <r>   -4.7920    1.0000 </r>
       <r>   -4.7905    1.0000 </r>
       <r>   -4.7606    1.0000 </r>
       <r>   -4.7391    1.0000 </r>
       <r>   -4.7218    1.0000 </r>
       <r>   -4.6850    1.0000 </r>
       <r>   -4.6472    1.0000 </r>
       <r>   -4.6444    1.0000 </r>
       <r>   -4.6159    1.0000 </r>
       <r>   -4.5793    1.0000 </r>
       <r>   -4.5711    1.0000 </r>
       <r>   -4.5330    1.0000 </r>
       <r>   -4.5082    1.0000 </r>
       <r>   -4.4876    1.0000 </r>
       <r>   -4.4782    1.0000 </r>
       <r>   -4.4620    1.0000 </r>
       <r>   -4.4462    1.0000 </r>
       <r>   -4.4258    1.0000 </r>
       <r>   -4.4159    1.0000 </r>
       <r>   -4.4032    1.0000 </r>
       <r>   -4.3703    1.0000 </r>
       <r>   -4.3447    1.0000 </r>
       <r>   -4.3416    1.0000 </r>
       <r>   -4.3086    1.0000 </r>
       <r>   -4.2882    1.0000 </r>
       <r>   -4.2826    1.0000 </r>
       <r>   -4.2688    1.0000 </r>
       <r>   -4.2474    1.0000 </r>
       <r>   -4.2409    1.0000 </r>
       <r>   -4.2308    1.0000 </r>
       <r>   -4.2105    1.0000 </r>
       <r>   -4.1934    1.0000 </r>
       <r>   -4.1839    1.0000 </r>
       <r>   -4.1652    1.0000 </r>
       <r>   -4.1493    1.0000 </r>
       <r>   -4.1408    1.0000 </r>
       <r>   -4.1361    1.0000 </r>
       <r>   -4.1121    1.0000 </r>
       <r>   -4.1117    1.0000 </r>
       <r>   -4.0680    1.0000 </r>
       <r>   -4.0646    1.0000 </r>
       <r>   -4.0504    1.0000 </r>
       <r>   -4.0383    1.0000 </r>
       <r>   -4.0256    1.0000 </r>
       <r>   -4.0212    1.0000 </r>
       <r>   -4.0142    1.0000 </r>
       <r>   -4.0127    1.0000 </r>
       <r>   -3.9924    1.0000 </r>
       <r>   -3.9680    1.0000 </r>
       <r>   -3.9649    1.0000 </r>
       <r>   -3.9559    1.0000 </r>
       <r>   -3.9407    1.0000 </r>
       <r>   -3.9381    1.0000 </r>
       <r>   -3.9353    1.0000 </r>
       <r>   -3.9195    1.0000 </r>
       <r>   -3.9134    1.0000 </r>
       <r>   -3.9073    1.0000 </r>
       <r>   -3.8828    1.0000 </r>
       <r>   -3.8762    1.0000 </r>
       <r>   -3.8701    1.0000 </r>
       <r>   -3.8614    1.0000 </r>
       <r>   -3.8521    1.0000 </r>
       <r>   -3.8324    1.0000 </r>
       <r>   -3.8266    1.0000 </r>
       <r>   -3.8225    1.0000 </r>
       <r>   -3.8202    1.0000 </r>
       <r>   -3.8048    1.0000 </r>
       <r>   -3.7965    1.0000 </r>
       <r>   -3.7843    1.0000 </r>
       <r>   -3.7679    1.0000 </r>
       <r>   -3.7645    1.0000 </r>
       <r>   -3.7308    1.0000 </r>
       <r>   -3.7165    1.0000 </r>
       <r>   -3.7020    1.0000 </r>
       <r>   -3.6925    1.0000 </r>
       <r>   -3.5883    1.0000 </r>
       <r>   -3.5375    1.0000 </r>
       <r>   -2.9233    0.0000 </r>
       <r>   -2.8883    0.0000 </r>
       <r>   -2.8450    0.0000 </r>
       <r>   -2.6820    0.0000 </r>
       <r>   -2.6054    0.0000 </r>
       <r>   -2.5236    0.0000 </r>
       <r>   -2.3893    0.0000 </r>
       <r>   -2.0724    0.0000 </r>
       <r>   -1.9956    0.0000 </r>
       <r>   -1.9110    0.0000 </r>
       <r>   -1.0775    0.0000 </r>
       <r>   -1.0609    0.0000 </r>
       <r>   -0.9591    0.0000 </r>
       <r>   -0.8733    0.0000 </r>
       <r>   -0.7487    0.0000 </r>
       <r>   -0.7383    0.0000 </r>
       <r>   -0.7211    0.0000 </r>
       <r>   -0.5597    0.0000 </r>
       <r>   -0.4688    0.0000 </r>
       <r>   -0.4116    0.0000 </r>
       <r>   -0.4008    0.0000 </r>
       <r>   -0.3687    0.0000 </r>
       <r>   -0.2887    0.0000 </r>
       <r>   -0.1912    0.0000 </r>
       <r>   -0.0482    0.0000 </r>
       <r>    0.8550    0.0000 </r>
       <r>    0.9663    0.0000 </r>
       <r>    1.0382    0.0000 </r>
       <r>    1.1450    0.0000 </r>
       <r>    1.1644    0.0000 </r>
       <r>    1.2160    0.0000 </r>
       <r>    1.2620    0.0000 </r>
       <r>    1.4016    0.0000 </r>
       <r>    1.4270    0.0000 </r>
       <r>    1.4870    0.0000 </r>
       <r>    1.5136    0.0000 </r>
       <r>    1.5306    0.0000 </r>
      </set>
     </set>
     <set comment="spin 2">
      <set comment="kpoint 1">
       <r>  -10.7961    1.0000 </r>
       <r>   -9.2889    1.0000 </r>
       <r>   -9.1798    1.0000 </r>
       <r>   -9.1368    1.0000 </r>
       <r>   -9.0068    1.0000 </r>
       <r>   -7.6407    1.0000 </r>
       <r>   -7.6269    1.0000 </r>
       <r>   -7.5959    1.0000 </r>
       <r>   -7.5160    1.0000 </r>
       <r>   -7.4185    1.0000 </r>
       <r>   -7.2672    1.0000 </r>
       <r>   -7.1067    1.0000 </r>
       <r>   -7.0649    1.0000 </r>
       <r>   -7.0242    1.0000 </r>
       <r>   -6.9841    1.0000 </r>
       <r>   -6.7859    1.0000 </r>
       <r>   -6.7749    1.0000 </r>
       <r>   -6.7035    1.0000 </r>
       <r>   -6.6891    1.0000 </r>
       <r>   -6.6235    1.0000 </r>
       <r>   -6.5632    1.0000 </r>
       <r>   -6.5337    1.0000 </r>
       <r>   -6.4859    1.0000 </r>
       <r>   -6.2311    1.0000 </r>
       <r>   -6.2092    1.0000 </r>
       <r>   -6.0984    1.0000 </r>
       <r>   -6.0278    1.0000 </r>
       <r>   -5.9079    1.0000 </r>
       <r>   -5.8602    1.0000 </r>
       <r>   -5.8384    1.0000 </r>
       <r>   -5.8185    1.0000 </r>
       <r>   -5.7906    1.0000 </r>
       <r>   -5.7383    1.0000 </r>
       <r>   -5.6839    1.0000 </r>
       <r>   -5.6637    1.0000 </r>
       <r>   -5.6099    1.0000 </r>
       <r>   -5.5878    1.0000 </r>
       <r>   -5.5336    1.0000 </r>
       <r>   -5.5252    1.0000 </r>
       <r>   -5.4853    1.0000 </r>
       <r>   -5.4701    1.0000 </r>
       <r>   -5.4208    1.0000 </r>
       <r>   -5.3709    1.0000 </r>
       <r>   -5.3486    1.0000 </r>
       <r>   -5.3329    1.0000 </r>
       <r>   -5.3033    1.0000 </r>
       <r>   -5.2560    1.0000 </r>
       <r>   -5.2431    1.0000 </r>
       <r>   -5.2322    1.0000 </r>
       <r>   -5.2122    1.0000 </r>
       <r>   -5.1761    1.0000 </r>
       <r>   -5.1654    1.0000 </r>
       <r>   -5.1375    1.0000 </r>
       <r>   -5.0844    1.0000 </r>
       <r>   -5.0426    1.0000 </r>
       <r>   -5.0100    1.0000 </r>
       <r>   -4.9579    1.0000 </r>
       <r>   -4.9428    1.0000 </r>
       <r>   -4.9406    1.0000 </r>
       <r>   -4.8693    1.0000 </r>
       <r>   -4.8437    1.0000 </r>
       <r>   -4.8209    1.0000 </r>
       <r>   -4.8084    1.0000 </r>
       <r>   -4.7900    1.0000 </r>
       <r>   -4.7703    1.0000 </r>
       <r>   -4.6845    1.0000 </r>
       <r>   -4.6641    1.0000 </r>
       <r>   -4.5819    1.0000 </r>
       <r>   -4.5646    1.0000 </r>
       <r>   -4.5538    1.0000 </r>
       <r>   -4.5382    1.0000 </r>
       <r>   -4.5046    1.0000 </r>
       <r>   -4.4715    1.0000 </r>
       <r>   -4.4269    1.0000 </r>
       <r>   -4.4061    1.0000 </r>
       <r>   -4.3874    1.0000 </r>
       <r>   -4.3516    1.0000 </r>
       <r>   -4.3258    1.0000 </r>
       <r>   -4.2971    1.0000 </r>
       <r>   -4.2891    1.0000 </r>
       <r>   -4.2412    1.0000 </r>
       <r>   -4.2401    1.0000 </r>
       <r>   -4.2075    1.0000 </r>
       <r>   -4.1823    1.0000 </r>
       <r>   -4.1398    1.0000 </r>
       <r>   -4.1000    1.0000 </r>
       <r>   -4.0956    1.0000 </r>
       <r>   -4.0735    1.0000 </r>
       <r>   -4.0605    1.0000 </r>
       <r>   -4.0280    1.0000 </r>
       <r>   -3.9950    1.0000 </r>
       <r>   -3.9935    1.0000 </r>
       <r>   -3.9466    1.0000 </r>
       <r>   -3.9345    1.0000 </r>
       <r>   -3.9290    1.0000 </r>
       <r>   -3.8987    1.0000 </r>
       <r>   -3.8910    1.0000 </r>
       <r>   -3.8601    1.0000 </r>
       <r>   -3.8383    1.0000 </r>
       <r>   -3.8262    1.0000 </r>
       <r>   -3.8023    1.0000 </r>
       <r>   -3.7930    1.0000 </r>
       <r>   -3.7507    1.0000 </r>
       <r>   -3.7434    1.0000 </r>
       <r>   -3.7313    1.0000 </r>
       <r>   -3.7055    1.0000 </r>
       <r>   -3.6733    1.0000 </r>
       <r>   -3.6592    1.0000 </r>
       <r>   -3.6502    1.0000 </r>
       <r>   -3.6395    1.0000 </r>
       <r>   -3.6155    1.0000 </r>
       <r>   -3.5805    1.0000 </r>
       <r>   -3.5759    1.0000 </r>
       <r>   -3.5662    1.0000 </r>
       <r>   -3.5579    1.0000 </r>
       <r>   -3.5283    1.0000 </r>
       <r>   -3.5107    1.0000 </r>
       <r>   -3.5083    1.0000 </r>
       <r>   -3.4899    1.0000 </r>
       <r>   -3.4688    1.0000 </r>
       <r>   -3.4613    1.0000 </r>
       <r>   -3.4471    1.0000 </r>
       <r>   -3.4200    1.0000 </r>
       <r>   -3.3995    1.0000 </r>
       <r>   -3.3939    1.0000 </r>
       <r>   -3.3807    1.0000 </r>
       <r>   -3.3612    1.0000 </r>
       <r>   -3.3558    1.0000 </r>
       <r>   -3.3451    1.0000 </r>
       <r>   -3.3362    1.0000 </r>
       <r>   -3.3200    1.0000 </r>
       <r>   -3.3099    1.0000 </r>
       <r>   -3.2977    1.0000 </r>
       <r>   -3.2924    1.0000 </r>
       <r>   -3.2809    1.0000 </r>
       <r>   -3.2694    1.0000 </r>
       <r>   -3.2356    1.0000 </r>
       <r>   -3.2287    1.0000 </r>
       <r>   -3.2130    1.0000 </r>
       <r>   -3.2026    0.9999 </r>
       <r>   -3.1629    0.8441 </r>
       <r>   -3.1335    0.1423 </r>
       <r>   -3.1174    0.0136 </r>
       <r>   -3.0942    0.0001 </r>
       <r>   -3.0710    0.0000 </r>
       <r>   -3.0567    0.0000 </r>
       <r>   -3.0559    0.0000 </r>
       <r>   -3.0424    0.0000 </r>
       <r>   -3.0137    0.0000 </r>
       <r>   -3.0057    0.0000 </r>
       <r>   -2.9939    0.0000 </r>
       <r>   -2.9731    0.0000 </r>
       <r>   -2.9558    0.0000 </r>
       <r>   -2.9511    0.0000 </r>
       <r>   -2.9491    0.0000 </r>
       <r>   -2.9288    0.0000 </r>
       <r>   -2.9060    0.0000 </r>
       <r>   -2.8976    0.0000 </r>
       <r>   -2.8761    0.0000 </r>
       <r>   -2.8631    0.0000 </r>
       <r>   -2.7412    0.0000 </r>
       <r>   -2.5955    0.0000 </r>
       <r>   -2.4896    0.0000 </r>
       <r>   -2.4876    0.0000 </r>
       <r>   -2.3404    0.0000 </r>
       <r>   -2.2522    0.0000 </r>
       <r>   -2.1988    0.0000 </r>
       <r>   -2.1158    0.0000 </r>
       <r>   -1.8024    0.0000 </r>
       <r>   -1.7313    0.0000 </r>
       <r>   -1.6315    0.0000 </r>
       <r>   -0.9614    0.0000 </r>
       <r>   -0.9340    0.0000 </r>
       <r>   -0.8356    0.0000 </r>
       <r>   -0.7176    0.0000 </r>
       <r>   -0.6051    0.0000 </r>
       <r>   -0.5882    0.0000 </r>
       <r>   -0.5463    0.0000 </r>
       <r>   -0.4251    0.0000 </r>
       <r>   -0.2988    0.0000 </r>
       <r>   -0.2553    0.0000 </r>
       <r>   -0.2510    0.0000 </r>
       <r>   -0.2175    0.0000 </r>
       <r>   -0.1137    0.0000 </r>
       <r>   -0.0139    0.0000 </r>
       <r>    0.0959    0.0000 </r>
       <r>    0.9300    0.0000 </r>
       <r>    1.0049    0.0000 </r>
       <r>    1.0933    0.0000 </r>
       <r>    1.1984    0.0000 </r>
       <r>    1.2533    0.0000 </r>
       <r>    1.2688    0.0000 </r>
       <r>    1.3125    0.0000 </r>
       <r>    1.4253    0.0000 </r>
       <r>    1.4766    0.0000 </r>
       <r>    1.5294    0.0000 </r>
       <r>    1.5380    0.0000 </r>
       <r>    1.5819    0.0000 </r>
      </set>
     </set>
    </set>
   </array>
  </eigenvalues>
  <separator name="orbital magnetization" >
   <v name="MAGDIPOLOUT">      0.00000000      0.00000000      0.00000000</v>
  </separator>
 </calculation>
 <structure name="finalpos" >
  <crystal>
   <varray name="basis" >
    <v>      16.00000000       0.00000000       0.00000000 </v>
    <v>       0.00000000      16.00000000       0.00000000 </v>
    <v>       0.00000000       0.00000000      16.00000000 </v>
   </varray>
   <i name="volume">   4096.00000000 </i>
   <varray name="rec_basis" >
    <v>       0.06250000       0.00000000       0.00000000 </v>
    <v>       0.00000000       0.06250000       0.00000000 </v>
    <v>       0.00000000       0.00000000       0.06250000 </v>
   </varray>
  </crystal>
  <varray name="positions" >
   <v>       0.24378641       0.46255203       0.38522985 </v>
   <v>       0.47007288       0.46877403       0.67467578 </v>
   <v>       0.56152350       0.67630063       0.38346664 </v>
   <v>       0.57179842       0.26489599       0.38472489 </v>
   <v>       0.33241306       0.46536962       0.61882252 </v>
   <v>       0.65467629       0.62054367       0.49145620 </v>
   <v>       0.66194333       0.32607313       0.49223560 </v>
   <v>       0.32651924       0.57272571       0.34038987 </v>
   <v>       0.33223357       0.35665485       0.34088359 </v>
   <v>       0.40125631       0.46623601       0.24896361 </v>
   <v>       0.53546039       0.26349143       0.53092512 </v>
   <v>       0.52500387       0.67668324       0.52958833 </v>
   <v>       0.65439537       0.54932641       0.35831103 </v>
   <v>       0.65808013       0.39654983       0.35865966 </v>
   <v>       0.41666560       0.59350458       0.59152543 </v>
   <v>       0.42307194       0.34158677       0.59210277 </v>
   <v>       0.46751583       0.59307473       0.30532054 </v>
   <v>       0.47408120       0.34331029       0.30599236 </v>
   <v>       0.42690106       0.29994330       0.44180455 </v>
   <v>       0.41838382       0.63431310       0.44093580 </v>
   <v>       0.31659024       0.54012477       0.48908753 </v>
   <v>       0.32056421       0.38931383       0.48934708 </v>
   <v>       0.54280951       0.47012030       0.30438721 </v>
   <v>       0.56632251       0.54650141       0.58909460 </v>
   <v>       0.57004005       0.39617721       0.58914298 </v>
   <v>       0.65637959       0.47325489       0.48983500 </v>
   <v>       0.44807730       0.46815317       0.53190079 </v>
   <v>       0.53335191       0.54654128       0.43877374 </v>
   <v>       0.53707423       0.39354763       0.43908810 </v>
   <v>       0.41085607       0.46695279       0.39021790 </v>
   <v>       0.60550344       0.64313332       0.77483799 </v>
   <v>       0.58250873       0.62127318       0.73975668 </v>
  </varray>
 </structure>
</modeling>
