unknown system                          
           1
    16.000000    0.000000    0.000000
     0.000000   16.000000    0.000000
     0.000000    0.000000   16.000000
   Ni   H 
    30     2
Direct configuration=     1
   0.24204812  0.46574375  0.39358062
   0.47664750  0.46996062  0.67724500
   0.56549250  0.67648500  0.38362437
   0.57311312  0.26554500  0.38499375
   0.33768562  0.46766813  0.62356500
   0.65978875  0.62061375  0.49154062
   0.66524938  0.32527375  0.49257937
   0.32675000  0.57369062  0.34481625
   0.33114375  0.36122812  0.34507188
   0.40257313  0.46809063  0.25190625
   0.53750625  0.26414000  0.53140812
   0.53031438  0.67711438  0.53047625
   0.65811125  0.54895063  0.35866813
   0.65967312  0.39560375  0.35880750
   0.42268937  0.59525687  0.59476000
   0.42683313  0.34299625  0.59471812
   0.46809750  0.59455000  0.30764875
   0.47352250  0.34516125  0.30878812
   0.42711875  0.30087688  0.44386313
   0.42129875  0.63628937  0.44334312
   0.31992125  0.54301125  0.49424562
   0.32328812  0.39197125  0.49426000
   0.54435625  0.47145750  0.30680125
   0.57267187  0.54664000  0.59011250
   0.57482875  0.39594625  0.59044750
   0.66008312  0.47271500  0.48947438
   0.45226000  0.46980438  0.53473625
   0.53660750  0.54776313  0.44005500
   0.53881625  0.39369375  0.44078812
   0.41230875  0.46914563  0.39380312
   0.55900000  0.63396687  0.71141687
   0.54606125  0.59564938  0.73393875
Direct configuration=     2
   0.24232978  0.46577564  0.39368098
   0.47633752  0.46953258  0.67706069
   0.56542684  0.67637030  0.38364711
   0.57296756  0.26566919  0.38504501
   0.33774925  0.46772013  0.62351396
   0.65971097  0.62059412  0.49140813
   0.66499911  0.32529983  0.49249844
   0.32690809  0.57358057  0.34487154
   0.33132979  0.36128221  0.34513605
   0.40250037  0.46807105  0.25201283
   0.53753424  0.26425076  0.53134217
   0.53033795  0.67702267  0.53021421
   0.65788738  0.54891577  0.35878116
   0.65950817  0.39572584  0.35888210
   0.42240341  0.59520973  0.59440456
   0.42695274  0.34319021  0.59461732
   0.46812470  0.59450601  0.30773054
   0.47348318  0.34520291  0.30879329
   0.42719148  0.30096363  0.44399098
   0.42141956  0.63613755  0.44336758
   0.32001193  0.54284905  0.49426507
   0.32326518  0.39199484  0.49413907
   0.54431369  0.47143200  0.30677035
   0.57253002  0.54686020  0.59015908
   0.57472710  0.39598649  0.59022578
   0.65988234  0.47270757  0.48953686
   0.45230318  0.46960332  0.53460688
   0.53672266  0.54765462  0.44027039
   0.53891690  0.39377400  0.44084460
   0.41242221  0.46917364  0.39368142
   0.55999910  0.63625331  0.71052200
   0.54566362  0.59369340  0.73546363
Direct configuration=     3
   0.24238833  0.46578227  0.39369627
   0.47627003  0.46943223  0.67703448
   0.56540765  0.67634026  0.38363600
   0.57292005  0.26568904  0.38504238
   0.33774935  0.46772988  0.62348865
   0.65971576  0.62059924  0.49136799
   0.66495129  0.32529964  0.49247243
   0.32694802  0.57356688  0.34488328
   0.33137873  0.36127731  0.34514781
   0.40247034  0.46806576  0.25202210
   0.53753395  0.26425907  0.53133813
   0.53034270  0.67701963  0.53016225
   0.65782231  0.54890944  0.35880345
   0.65947324  0.39576042  0.35889132
   0.42232564  0.59520218  0.59430943
   0.42697043  0.34320913  0.59460399
   0.46814314  0.59448842  0.30775283
   0.47347479  0.34520742  0.30878730
   0.42721204  0.30099211  0.44402306
   0.42143787  0.63608510  0.44336641
   0.32003897  0.54280594  0.49426442
   0.32326141  0.39199330  0.49410966
   0.54429361  0.47142553  0.30675747
   0.57246654  0.54696550  0.59029156
   0.57470097  0.39600987  0.59017554
   0.65984462  0.47271571  0.48957634
   0.45230675  0.46958081  0.53454287
   0.53673509  0.54762510  0.44032348
   0.53892224  0.39379262  0.44083510
   0.41248155  0.46917881  0.39367392
   0.55966039  0.63496708  0.71136833
   0.54621220  0.59502745  0.73473551
Direct configuration=     4
   0.24255302  0.46579678  0.39373116
   0.47606824  0.46911701  0.67693924
   0.56535962  0.67626416  0.38360283
   0.57279368  0.26573691  0.38503723
   0.33773597  0.46774533  0.62343398
   0.65970821  0.62060226  0.49129571
   0.66483462  0.32530398  0.49240783
   0.32704598  0.57354250  0.34490279
   0.33149830  0.36126636  0.34518112
   0.40238878  0.46805825  0.25202192
   0.53753122  0.26427218  0.53133914
   0.53034577  0.67701257  0.53000882
   0.65767913  0.54889516  0.35883557
   0.65939504  0.39585231  0.35891083
   0.42212927  0.59516611  0.59404575
   0.42700857  0.34325026  0.59456988
   0.46819398  0.59445161  0.30778123
   0.47345973  0.34522197  0.30877229
   0.42726706  0.30106938  0.44409958
   0.42148349  0.63596150  0.44335977
   0.32009324  0.54270502  0.49425251
   0.32325094  0.39196957  0.49405468
   0.54424134  0.47141177  0.30670793
   0.57229591  0.54712404  0.59045023
   0.57464865  0.39607559  0.59008396
   0.65974757  0.47275005  0.48968762
   0.45231374  0.46953988  0.53445278
   0.53676633  0.54755710  0.44045162
   0.53892525  0.39384282  0.44080394
   0.41262509  0.46918808  0.39364002
   0.55990967  0.63498965  0.71173409
   0.54656258  0.59526295  0.73488768
Direct configuration=     5
   0.24280856  0.46578340  0.39368844
   0.47559756  0.46834560  0.67674240
   0.56526984  0.67604821  0.38350230
   0.57245315  0.26585121  0.38501291
   0.33763984  0.46771652  0.62326783
   0.65976146  0.62064362  0.49117352
   0.66453638  0.32536013  0.49222761
   0.32725600  0.57349920  0.34490302
   0.33174964  0.36119768  0.34523739
   0.40218552  0.46803043  0.25198974
   0.53753531  0.26430761  0.53134081
   0.53034398  0.67705686  0.52969503
   0.65733192  0.54886851  0.35889871
   0.65923840  0.39606354  0.35894821
   0.42172368  0.59511945  0.59347641
   0.42704078  0.34328347  0.59448945
   0.46831304  0.59433061  0.30780097
   0.47343246  0.34522948  0.30871342
   0.42737981  0.30123063  0.44423131
   0.42155805  0.63567518  0.44330719
   0.32015027  0.54248388  0.49417202
   0.32324251  0.39187151  0.49393697
   0.54410255  0.47137379  0.30658449
   0.57189740  0.54750866  0.59099006
   0.57450617  0.39626554  0.58991170
   0.65959492  0.47286061  0.48999292
   0.45230437  0.46946392  0.53428819
   0.53685584  0.54744701  0.44072570
   0.53894657  0.39395506  0.44066661
   0.41291197  0.46917738  0.39354121
   0.56075830  0.63541925  0.71252059
   0.54743378  0.59553518  0.73550662
Direct configuration=     6
   0.24293271  0.46575198  0.39361869
   0.47537878  0.46802636  0.67671441
   0.56525193  0.67597390  0.38341585
   0.57231455  0.26582636  0.38497246
   0.33752090  0.46767250  0.62318510
   0.65975736  0.62066713  0.49118560
   0.66444726  0.32539152  0.49214759
   0.32732286  0.57349603  0.34487353
   0.33182371  0.36114474  0.34524746
   0.40206430  0.46802292  0.25193891
   0.53751763  0.26426515  0.53140063
   0.53032995  0.67708069  0.52957563
   0.65722275  0.54887669  0.35886620
   0.65920690  0.39617849  0.35895056
   0.42157080  0.59513689  0.59329301
   0.42700254  0.34322011  0.59448336
   0.46836769  0.59427737  0.30775597
   0.47341338  0.34520987  0.30861272
   0.42744706  0.30129356  0.44426482
   0.42155793  0.63557200  0.44325953
   0.32012946  0.54237334  0.49406623
   0.32323465  0.39183208  0.49389146
   0.54405761  0.47135246  0.30646938
   0.57167197  0.54767744  0.59125577
   0.57444615  0.39633575  0.58985533
   0.65951920  0.47296398  0.49014981
   0.45228411  0.46943127  0.53425687
   0.53691053  0.54741500  0.44084139
   0.53894476  0.39400927  0.44062958
   0.41299212  0.46916652  0.39347841
   0.56125319  0.63563085  0.71299963
   0.54796524  0.59573090  0.73582785
Direct configuration=     7
   0.24300423  0.46567682  0.39343890
   0.47513817  0.46776604  0.67678747
   0.56527684  0.67593303  0.38327898
   0.57218278  0.26574962  0.38492865
   0.33733951  0.46758558  0.62305813
   0.65971490  0.62069901  0.49128886
   0.66437121  0.32545453  0.49206491
   0.32733626  0.57352659  0.34476772
   0.33184007  0.36102605  0.34521850
   0.40192208  0.46800820  0.25186847
   0.53749882  0.26420625  0.53147991
   0.53028008  0.67711640  0.52947981
   0.65717581  0.54891473  0.35878019
   0.65922796  0.39630723  0.35895504
   0.42143003  0.59519974  0.59322773
   0.42689560  0.34308556  0.59448884
   0.46841586  0.59422203  0.30765476
   0.47339409  0.34517432  0.30846240
   0.42752894  0.30132962  0.44424716
   0.42152782  0.63550850  0.44318305
   0.32004250  0.54229025  0.49391777
   0.32321922  0.39175169  0.49386160
   0.54402755  0.47130934  0.30630883
   0.57135769  0.54780291  0.59149170
   0.57439493  0.39635788  0.58984315
   0.65945384  0.47309893  0.49031246
   0.45220453  0.46939622  0.53428981
   0.53694714  0.54741763  0.44090931
   0.53897004  0.39402204  0.44055788
   0.41303344  0.46914054  0.39340935
   0.56198814  0.63596600  0.71365061
   0.54871993  0.59595984  0.73627178
Direct configuration=     8
   0.24313604  0.46556311  0.39316348
   0.47471821  0.46731079  0.67679423
   0.56528322  0.67579789  0.38311670
   0.57194868  0.26570547  0.38489682
   0.33706018  0.46747404  0.62288598
   0.65964963  0.62075158  0.49139181
   0.66421189  0.32555192  0.49192566
   0.32741458  0.57352964  0.34462857
   0.33195247  0.36087756  0.34520495
   0.40170861  0.46797798  0.25178385
   0.53748274  0.26414579  0.53155953
   0.53019440  0.67716607  0.52928419
   0.65700892  0.54896191  0.35873435
   0.65921289  0.39652158  0.35899483
   0.42116629  0.59522019  0.59302151
   0.42677027  0.34295077  0.59445832
   0.46848787  0.59412123  0.30753281
   0.47335873  0.34511860  0.30825302
   0.42765524  0.30139646  0.44422682
   0.42150724  0.63536096  0.44306721
   0.31996251  0.54214175  0.49370353
   0.32319072  0.39163330  0.49375510
   0.54396037  0.47125340  0.30610450
   0.57089810  0.54801885  0.59192360
   0.57426033  0.39643376  0.58980626
   0.65932639  0.47328892  0.49055373
   0.45211900  0.46933109  0.53428837
   0.53699020  0.54738227  0.44100619
   0.53900421  0.39407843  0.44043919
   0.41311545  0.46910700  0.39330212
   0.56316733  0.63648883  0.71470268
   0.54993729  0.59634200  0.73697384
Direct configuration=     9
   0.24321726  0.46546629  0.39293233
   0.47445294  0.46712902  0.67684090
   0.56530878  0.67574260  0.38301162
   0.57183768  0.26565552  0.38488921
   0.33688838  0.46739630  0.62274687
   0.65956291  0.62078691  0.49149957
   0.66412474  0.32562474  0.49186283
   0.32742182  0.57353571  0.34449355
   0.33198360  0.36074532  0.34515878
   0.40158507  0.46794717  0.25173766
   0.53747122  0.26412237  0.53159107
   0.53009819  0.67717581  0.52918460
   0.65694666  0.54901815  0.35870130
   0.65923237  0.39664959  0.35902742
   0.42100495  0.59522638  0.59297630
   0.42666304  0.34284888  0.59443541
   0.46850490  0.59405931  0.30743892
   0.47333660  0.34508576  0.30812861
   0.42774193  0.30141583  0.44417604
   0.42147652  0.63529046  0.44298369
   0.31989395  0.54206185  0.49354837
   0.32316550  0.39156067  0.49365920
   0.54392404  0.47120889  0.30598951
   0.57060769  0.54808706  0.59212353
   0.57415636  0.39645145  0.58981682
   0.65923165  0.47340357  0.49068025
   0.45205453  0.46928706  0.53430120
   0.53697196  0.54735510  0.44102493
   0.53901120  0.39411308  0.44037042
   0.41312236  0.46907938  0.39324567
   0.56404366  0.63688467  0.71544655
   0.55081754  0.59658822  0.73746061
Direct configuration=    10
   0.24327426  0.46539443  0.39275805
   0.47426061  0.46702389  0.67683536
   0.56531922  0.67569726  0.38295819
   0.57176616  0.26564148  0.38489533
   0.33676216  0.46734624  0.62265023
   0.65948775  0.62080982  0.49156589
   0.66404091  0.32568656  0.49182534
   0.32743258  0.57353149  0.34439723
   0.33202519  0.36064829  0.34511760
   0.40150636  0.46791622  0.25170434
   0.53745931  0.26409436  0.53161081
   0.53001356  0.67717920  0.52912593
   0.65687746  0.54905965  0.35871539
   0.65923326  0.39673923  0.35906169
   0.42089167  0.59520558  0.59293053
   0.42658985  0.34278481  0.59440754
   0.46851294  0.59401699  0.30738271
   0.47332967  0.34504948  0.30803757
   0.42779799  0.30142367  0.44413506
   0.42145254  0.63523537  0.44292402
   0.31986097  0.54200790  0.49344268
   0.32314764  0.39150648  0.49357244
   0.54389608  0.47117928  0.30593080
   0.57043302  0.54813763  0.59225418
   0.57405292  0.39647182  0.58981376
   0.65915553  0.47347905  0.49076172
   0.45200987  0.46925735  0.53429570
   0.53695207  0.54733908  0.44102814
   0.53900897  0.39413432  0.44032084
   0.41312370  0.46905589  0.39320658
   0.56469786  0.63715132  0.71601919
   0.55148791  0.59679901  0.73779889
Direct configuration=    11
   0.24330145  0.46534199  0.39262303
   0.47415345  0.46702953  0.67683328
   0.56532315  0.67567981  0.38293840
   0.57175058  0.26563378  0.38490809
   0.33668414  0.46731311  0.62258100
   0.65940994  0.62081606  0.49161770
   0.66398631  0.32573761  0.49182267
   0.32742155  0.57352836  0.34431999
   0.33203846  0.36057165  0.34506682
   0.40147491  0.46789031  0.25168403
   0.53744665  0.26407517  0.53161827
   0.52993705  0.67715951  0.52910738
   0.65684479  0.54909334  0.35874014
   0.65924794  0.39678576  0.35908529
   0.42083312  0.59517888  0.59293738
   0.42653362  0.34274797  0.59438034
   0.46850783  0.59399802  0.30734660
   0.47333625  0.34502239  0.30798324
   0.42782355  0.30141156  0.44409592
   0.42142105  0.63521500  0.44288163
   0.31982946  0.54199055  0.49337618
   0.32312987  0.39146792  0.49350982
   0.54388254  0.47116368  0.30591832
   0.57035003  0.54813032  0.59228035
   0.57397057  0.39647501  0.58982375
   0.65910318  0.47351544  0.49079223
   0.45197533  0.46923895  0.53428917
   0.53691468  0.54733204  0.44100432
   0.53899536  0.39414385  0.44029762
   0.41310010  0.46903604  0.39318854
   0.56518066  0.63737014  0.71639990
   0.55195242  0.59690938  0.73803238
Direct configuration=    12
   0.24333065  0.46528695  0.39247511
   0.47403450  0.46704753  0.67681129
   0.56531015  0.67566682  0.38292355
   0.57174650  0.26563264  0.38492057
   0.33661012  0.46728216  0.62249098
   0.65930486  0.62081183  0.49166555
   0.66391657  0.32579512  0.49182814
   0.32740406  0.57352670  0.34423544
   0.33205793  0.36048806  0.34500303
   0.40144544  0.46786125  0.25166140
   0.53742620  0.26404915  0.53163019
   0.52983769  0.67712763  0.52909082
   0.65680315  0.54912081  0.35877503
   0.65927766  0.39682699  0.35909737
   0.42076343  0.59514314  0.59293283
   0.42647091  0.34270774  0.59434562
   0.46849946  0.59397822  0.30731648
   0.47335106  0.34499003  0.30792556
   0.42784621  0.30139728  0.44405635
   0.42136995  0.63519640  0.44283785
   0.31978655  0.54197294  0.49330568
   0.32310242  0.39142735  0.49343732
   0.54386921  0.47114599  0.30591159
   0.57026478  0.54811544  0.59229068
   0.57387408  0.39647775  0.58982809
   0.65904131  0.47354304  0.49082342
   0.45193108  0.46922093  0.53426677
   0.53686123  0.54731640  0.44098478
   0.53896829  0.39414896  0.44027867
   0.41306909  0.46900764  0.39316241
   0.56575672  0.63760059  0.71688386
   0.55252875  0.59708962  0.73828730
Direct configuration=    13
   0.24342146  0.46513047  0.39208205
   0.47369954  0.46703285  0.67676696
   0.56529186  0.67563002  0.38287133
   0.57169446  0.26562206  0.38494596
   0.33636878  0.46718162  0.62227182
   0.65911933  0.62085303  0.49181739
   0.66373544  0.32593812  0.49182936
   0.32738124  0.57350875  0.34401872
   0.33212107  0.36026392  0.34485003
   0.40134201  0.46777723  0.25158373
   0.53737012  0.26398113  0.53165963
   0.52958154  0.67708728  0.52904776
   0.65670938  0.54920327  0.35883468
   0.65931497  0.39696150  0.35915265
   0.42057126  0.59506783  0.59290891
   0.42629915  0.34259276  0.59425527
   0.46848204  0.59390798  0.30721944
   0.47337660  0.34490897  0.30777282
   0.42790848  0.30135985  0.44395185
   0.42126001  0.63512263  0.44271799
   0.31967810  0.54189175  0.49309218
   0.32303698  0.39131312  0.49323169
   0.54382385  0.47108954  0.30586258
   0.57000507  0.54811015  0.59237334
   0.57362599  0.39649396  0.58985058
   0.65887508  0.47363650  0.49092539
   0.45180183  0.46917085  0.53422117
   0.53673277  0.54729208  0.44095013
   0.53892040  0.39417293  0.44019362
   0.41298095  0.46893205  0.39306995
   0.56729275  0.63825527  0.71814888
   0.55403748  0.59751365  0.73900591
Direct configuration=    14
   0.24351511  0.46496077  0.39164579
   0.47336332  0.46709259  0.67673518
   0.56523740  0.67560075  0.38284617
   0.57168302  0.26560888  0.38497042
   0.33610693  0.46707029  0.62202220
   0.65887709  0.62088838  0.49197285
   0.66356811  0.32606641  0.49187662
   0.32734511  0.57348361  0.34377927
   0.33218761  0.36002113  0.34466424
   0.40126997  0.46768564  0.25152510
   0.53729828  0.26394387  0.53167001
   0.52928671  0.67702559  0.52903132
   0.65661576  0.54928338  0.35891277
   0.65935355  0.39709247  0.35921295
   0.42036413  0.59497727  0.59289642
   0.42610552  0.34249010  0.59413299
   0.46845617  0.59385122  0.30710954
   0.47342459  0.34482219  0.30762997
   0.42795157  0.30129416  0.44384199
   0.42110661  0.63506245  0.44258542
   0.31954170  0.54179482  0.49285439
   0.32295879  0.39119703  0.49299417
   0.54379380  0.47104045  0.30581463
   0.56975491  0.54806380  0.59238083
   0.57336209  0.39649130  0.58989556
   0.65869682  0.47371375  0.49101680
   0.45163374  0.46911078  0.53413825
   0.53656649  0.54727418  0.44090444
   0.53884663  0.39420144  0.44011392
   0.41286347  0.46884190  0.39295724
   0.56901422  0.63897651  0.71957267
   0.55571080  0.59797600  0.73977961
Direct configuration=    15
   0.24354686  0.46491172  0.39151016
   0.47328530  0.46715074  0.67669366
   0.56518683  0.67561185  0.38286821
   0.57171583  0.26561403  0.38497509
   0.33603001  0.46703734  0.62194465
   0.65879629  0.62089701  0.49200191
   0.66354893  0.32607726  0.49191463
   0.32733114  0.57347189  0.34371779
   0.33219740  0.35993719  0.34458463
   0.40128728  0.46765729  0.25150987
   0.53726876  0.26391622  0.53167903
   0.52918889  0.67702694  0.52905790
   0.65658707  0.54929839  0.35894220
   0.65936437  0.39710671  0.35922618
   0.42029970  0.59495189  0.59288851
   0.42604249  0.34247865  0.59408641
   0.46844800  0.59384028  0.30709478
   0.47345678  0.34479363  0.30760372
   0.42794480  0.30126102  0.44380761
   0.42103823  0.63506614  0.44255383
   0.31947526  0.54177549  0.49278432
   0.32291772  0.39115687  0.49291444
   0.54378895  0.47103654  0.30582529
   0.56970032  0.54803444  0.59233280
   0.57328428  0.39648774  0.58990651
   0.65864008  0.47371680  0.49102571
   0.45156719  0.46909578  0.53410508
   0.53651347  0.54727967  0.44088198
   0.53882149  0.39419375  0.44010123
   0.41281969  0.46880952  0.39292451
   0.56955473  0.63920718  0.72001942
   0.55621186  0.59810317  0.74000170
Direct configuration=    16
   0.24358496  0.46483326  0.39130163
   0.47314766  0.46720873  0.67665177
   0.56512349  0.67562008  0.38288221
   0.57174413  0.26561519  0.38498770
   0.33590247  0.46698909  0.62183208
   0.65865555  0.62090279  0.49205478
   0.66349577  0.32611122  0.49195642
   0.32730888  0.57346850  0.34360945
   0.33222273  0.35981395  0.34447497
   0.40127492  0.46761763  0.25145049
   0.53722850  0.26388959  0.53168808
   0.52904186  0.67700455  0.52906797
   0.65653759  0.54932227  0.35898456
   0.65938037  0.39714404  0.35925365
   0.42019961  0.59490476  0.59286948
   0.42594971  0.34244360  0.59402711
   0.46843539  0.59382260  0.30705686
   0.47349575  0.34475152  0.30754769
   0.42795301  0.30122378  0.44375665
   0.42094999  0.63505467  0.44250244
   0.31939896  0.54173279  0.49267513
   0.32286473  0.39110065  0.49280071
   0.54378058  0.47102143  0.30582016
   0.56959220  0.54799534  0.59229481
   0.57316411  0.39648372  0.58992264
   0.65855941  0.47373222  0.49105338
   0.45147388  0.46907215  0.53406451
   0.53642329  0.54727090  0.44085360
   0.53878350  0.39419002  0.44008317
   0.41276901  0.46876318  0.39287359
   0.57039538  0.63954609  0.72073843
   0.55702260  0.59835283  0.74034761
Direct configuration=    17
   0.24372738  0.46456296  0.39058239
   0.47266985  0.46739103  0.67653247
   0.56492113  0.67564815  0.38291609
   0.57182793  0.26560563  0.38502197
   0.33547302  0.46681925  0.62143886
   0.65822291  0.62094784  0.49224757
   0.66330043  0.32623629  0.49209320
   0.32724407  0.57344276  0.34324134
   0.33231904  0.35940098  0.34411208
   0.40124478  0.46747986  0.25129320
   0.53709841  0.26380216  0.53171219
   0.52854173  0.67693452  0.52909985
   0.65637716  0.54941961  0.35912188
   0.65941509  0.39727959  0.35936470
   0.41985122  0.59475341  0.59281157
   0.42562962  0.34231731  0.59382189
   0.46839037  0.59374956  0.30692954
   0.47362471  0.34460538  0.30735357
   0.42798687  0.30109920  0.44357848
   0.42065931  0.63500366  0.44231997
   0.31912707  0.54159845  0.49230010
   0.32268372  0.39089749  0.49240786
   0.54373793  0.47096468  0.30579115
   0.56921820  0.54787846  0.59218984
   0.57274634  0.39647368  0.58996953
   0.65828428  0.47378991  0.49115484
   0.45115939  0.46898863  0.53391768
   0.53611595  0.54724579  0.44075811
   0.53866185  0.39418061  0.44000895
   0.41258294  0.46860557  0.39268502
   0.57327556  0.64078565  0.72313166
   0.55974175  0.59909508  0.74157620
Direct configuration=    18
   0.24369472  0.46461586  0.39071003
   0.47279164  0.46737898  0.67658543
   0.56492236  0.67565851  0.38293231
   0.57183902  0.26560884  0.38500879
   0.33555687  0.46685311  0.62152495
   0.65829562  0.62092991  0.49218224
   0.66334831  0.32619462  0.49208131
   0.32726299  0.57344318  0.34332189
   0.33230839  0.35948924  0.34417340
   0.40129276  0.46751290  0.25132288
   0.53712415  0.26383117  0.53169389
   0.52864169  0.67695637  0.52910876
   0.65640285  0.54939099  0.35909611
   0.65937969  0.39723511  0.35935635
   0.41991012  0.59477796  0.59281050
   0.42568836  0.34235898  0.59386037
   0.46839809  0.59376234  0.30697081
   0.47361714  0.34464534  0.30741714
   0.42796663  0.30112236  0.44361270
   0.42071274  0.63501482  0.44236284
   0.31916128  0.54162429  0.49236764
   0.32269757  0.39092844  0.49247816
   0.54375415  0.47097974  0.30579196
   0.56929940  0.54788940  0.59217712
   0.57283665  0.39647631  0.58995674
   0.65834925  0.47376037  0.49111958
   0.45120678  0.46900517  0.53392689
   0.53616167  0.54724639  0.44077285
   0.53868229  0.39418071  0.44004023
   0.41261451  0.46863219  0.39270632
   0.57272351  0.64051336  0.72271338
   0.55921880  0.59898617  0.74130019
Direct configuration=    19
   0.24372000  0.46456239  0.39056621
   0.47270743  0.46741898  0.67655193
   0.56487158  0.67567158  0.38295025
   0.57186417  0.26561144  0.38501752
   0.33547200  0.46681934  0.62145820
   0.65821667  0.62093782  0.49221146
   0.66331534  0.32621308  0.49211513
   0.32725266  0.57343695  0.34325295
   0.33232972  0.35941067  0.34409999
   0.40130211  0.46748721  0.25128586
   0.53709789  0.26382024  0.53169290
   0.52854623  0.67695404  0.52912550
   0.65637413  0.54940716  0.35912170
   0.65938146  0.39725209  0.35937907
   0.41983953  0.59474726  0.59279527
   0.42562798  0.34234153  0.59382094
   0.46838977  0.59374987  0.30694798
   0.47365037  0.34462206  0.30739388
   0.42796604  0.30109637  0.44357945
   0.42065596  0.63500742  0.44233355
   0.31910346  0.54159473  0.49229464
   0.32265912  0.39088879  0.49239939
   0.54374894  0.47097067  0.30578880
   0.56923019  0.54786247  0.59214259
   0.57275938  0.39647504  0.58996819
   0.65830268  0.47376550  0.49113355
   0.45113710  0.46898995  0.53390040
   0.53610008  0.54724338  0.44075487
   0.53865837  0.39417753  0.44003079
   0.41257856  0.46859796  0.39266690
   0.57327884  0.64076099  0.72317457
   0.55972226  0.59910861  0.74152931
Direct configuration=    20
   0.24372816  0.46454301  0.39051535
   0.47268149  0.46743563  0.67653289
   0.56483918  0.67568120  0.38296818
   0.57188092  0.26561017  0.38502012
   0.33543998  0.46680779  0.62144034
   0.65818834  0.62094154  0.49221446
   0.66331289  0.32620645  0.49213606
   0.32725139  0.57343105  0.34323258
   0.33233660  0.35938588  0.34406910
   0.40131169  0.46747953  0.25126918
   0.53708542  0.26382547  0.53168706
   0.52851158  0.67695605  0.52913798
   0.65636816  0.54941029  0.35912477
   0.65937911  0.39724665  0.35938410
   0.41980867  0.59474150  0.59278745
   0.42560540  0.34233610  0.59380855
   0.46838274  0.59374443  0.30694740
   0.47366422  0.34461379  0.30738973
   0.42795869  0.30108545  0.44356925
   0.42063433  0.63500683  0.44232911
   0.31908191  0.54157755  0.49226611
   0.32264273  0.39087853  0.49236936
   0.54374785  0.47096872  0.30578758
   0.56920758  0.54785220  0.59211531
   0.57273680  0.39647112  0.58997147
   0.65828863  0.47376058  0.49113283
   0.45110463  0.46898519  0.53388386
   0.53607300  0.54724198  0.44074736
   0.53864563  0.39417443  0.44003471
   0.41256337  0.46858463  0.39264269
   0.57348919  0.64084977  0.72336532
   0.55990971  0.59916962  0.74160352
Direct configuration=    21
   0.24374071  0.46450741  0.39040980
   0.47262667  0.46747094  0.67649116
   0.56477501  0.67569938  0.38299377
   0.57191306  0.26560761  0.38502496
   0.33537739  0.46678639  0.62139750
   0.65811770  0.62093891  0.49222275
   0.66330895  0.32620209  0.49216947
   0.32723177  0.57343752  0.34317781
   0.33235027  0.35933533  0.34400826
   0.40132790  0.46746768  0.25122958
   0.53706012  0.26381153  0.53168949
   0.52844501  0.67693477  0.52914667
   0.65633247  0.54940811  0.35915146
   0.65937224  0.39724343  0.35940143
   0.41974922  0.59471471  0.59276350
   0.42555996  0.34232607  0.59378048
   0.46837180  0.59374862  0.30692499
   0.47369174  0.34459951  0.30738094
   0.42795094  0.30106600  0.44354659
   0.42058081  0.63500613  0.44231210
   0.31902600  0.54156048  0.49221328
   0.32260629  0.39085108  0.49231603
   0.54374561  0.47096446  0.30578765
   0.56915458  0.54782375  0.59206309
   0.57268860  0.39646666  0.58997134
   0.65826366  0.47375511  0.49113394
   0.45104447  0.46897122  0.53384973
   0.53602661  0.54723145  0.44072890
   0.53862323  0.39416306  0.44004476
   0.41253380  0.46855568  0.39260772
   0.57394791  0.64105246  0.72377383
   0.56031552  0.59929556  0.74177076
Direct configuration=    22
   0.24374550  0.46449349  0.39037076
   0.47260809  0.46748439  0.67647524
   0.56474953  0.67570776  0.38300684
   0.57192656  0.26560667  0.38502710
   0.33535371  0.46677799  0.62138391
   0.65809594  0.62094045  0.49222459
   0.66330762  0.32619793  0.49218465
   0.32722850  0.57343589  0.34316068
   0.33235571  0.35931703  0.34398489
   0.40133622  0.46746261  0.25121504
   0.53705092  0.26381259  0.53168654
   0.52841947  0.67693348  0.52915486
   0.65632502  0.54940881  0.35915670
   0.65936888  0.39723912  0.35940725
   0.41972615  0.59470825  0.59275624
   0.42554352  0.34232274  0.59377076
   0.46836694  0.59374714  0.30692169
   0.47370311  0.34459397  0.30737925
   0.42794567  0.30105778  0.44353884
   0.42056320  0.63500602  0.44230823
   0.31900715  0.54155041  0.49219300
   0.32259332  0.39084212  0.49229484
   0.54374485  0.47096319  0.30578779
   0.56913652  0.54781381  0.59204057
   0.57267196  0.39646395  0.58997276
   0.65825480  0.47375072  0.49113289
   0.45101942  0.46896703  0.53383773
   0.53600656  0.54722929  0.44072253
   0.53861464  0.39415946  0.44004855
   0.41252268  0.46854515  0.39259120
   0.57411104  0.64112533  0.72391968
   0.56045681  0.59933856  0.74182815
Direct configuration=    23
   0.24378985  0.46438413  0.39006833
   0.47243057  0.46758384  0.67632042
   0.56457593  0.67576790  0.38307744
   0.57200126  0.26561051  0.38504470
   0.33516764  0.46670832  0.62124228
   0.65794180  0.62096638  0.49226127
   0.66325038  0.32619114  0.49228164
   0.32718811  0.57341982  0.34302044
   0.33240688  0.35918311  0.34382191
   0.40138004  0.46741535  0.25112343
   0.53696810  0.26378165  0.53168616
   0.52821185  0.67690074  0.52920516
   0.65629188  0.54942802  0.35916410
   0.65934219  0.39722663  0.35943638
   0.41953459  0.59464275  0.59270319
   0.42540070  0.34228012  0.59369265
   0.46832243  0.59374611  0.30685546
   0.47377974  0.34454268  0.30735159
   0.42790839  0.30099329  0.44347005
   0.42040322  0.63499798  0.44225610
   0.31886473  0.54145419  0.49201892
   0.32250304  0.39078626  0.49212433
   0.54373379  0.47094306  0.30578191
   0.56897910  0.54773025  0.59189682
   0.57253011  0.39643896  0.58999443
   0.65816219  0.47373238  0.49113083
   0.45082100  0.46892049  0.53375313
   0.53585600  0.54719837  0.44066299
   0.53854075  0.39412328  0.44006267
   0.41242776  0.46846041  0.39246792
   0.57548564  0.64173473  0.72517436
   0.56166034  0.59971030  0.74233272
Direct configuration=    24
   0.24382503  0.46422594  0.38966375
   0.47220196  0.46772034  0.67616899
   0.56433936  0.67584050  0.38318328
   0.57209034  0.26560460  0.38505558
   0.33489450  0.46660472  0.62104775
   0.65777094  0.62102182  0.49229793
   0.66316659  0.32616192  0.49241631
   0.32714168  0.57337085  0.34283903
   0.33246333  0.35899663  0.34359789
   0.40145566  0.46734474  0.25101083
   0.53684885  0.26376031  0.53166608
   0.52794046  0.67687884  0.52929349
   0.65624462  0.54946089  0.35916104
   0.65929227  0.39719229  0.35945092
   0.41927051  0.59455953  0.59263675
   0.42519256  0.34221570  0.59357789
   0.46825282  0.59372966  0.30677207
   0.47388227  0.34446448  0.30731107
   0.42784397  0.30089856  0.44337111
   0.42020194  0.63498374  0.44218514
   0.31867197  0.54130767  0.49177040
   0.32237850  0.39071453  0.49187266
   0.54371420  0.47092789  0.30577328
   0.56880105  0.54764142  0.59173675
   0.57232474  0.39641543  0.59001703
   0.65802482  0.47372048  0.49110990
   0.45056437  0.46886727  0.53359988
   0.53567652  0.54717741  0.44056015
   0.53843550  0.39407816  0.44007166
   0.41231269  0.46835549  0.39230120